#atom_style bond #no stiffness
atom_style angle #with stiffness

boundary        p p p
###
# Pair interactions require lists of neighbours to be calculated
###

#neighbor 0.3 bin
neighbor 4 bin

neigh_modify every 1 delay 1 check yes
atom_modify sort 0 0
### Generate RESTART file, SPECIAL format, not a .txt file ###
### Useful if simulation crashes ###

restart 10000 p7_5_N31.restart
#############################



### READ "start" data file ###

read_data freebond.dat
Reading data file ...
  orthogonal box = (-1000.0000 -1000.0000 -1000.0000) to (1000.0000 1000.0000 1000.0000)
  1 by 1 by 1 MPI processor grid
  reading atoms ...
  31 atoms
Finding 1-2 1-3 1-4 neighbors ...
  special bond factors lj:    0        0        0       
  special bond factors coul:  0        0        0       
     0 = max # of 1-2 neighbors
     0 = max # of 1-3 neighbors
     0 = max # of 1-4 neighbors
     1 = max # of special neighbors
  special bonds CPU = 0.000 seconds
  read_data CPU = 0.002 seconds

######################

### READ "REstart" data file ###

######################



###
# Define groups (atom type 1 is group 'all')
###
group all type 1
31 atoms in group all


###
# Dump configs - "simple dumpings"
###

###
# Dump configs + box coords
###

dump   1   all   custom   1000  freebond.lammpstrj  id  x y z  ix iy iz
dump_modify   1   format line "%d %.5f %.5f %.5f %d %d %d"

########################################################################


###################################################################
# Stiffness term
#
# E = K * (1+cos(theta)), K>0
#

#change this coefficient to change stiffness (e.g. 1,5,10)

###################################################################

###################################################################
# Pair interaction between non-bonded atoms
#
#  Lennard-Jones 12-6 potential with cutoff:
#  potential E=4epsilon[ (sigma/r)^12 - (sigma/r)^6]  for r<r_cut
#
#  1.12246 = 2^(1/6) is the minimum of the potential


pair_style      lj/cut 1.12246152962189
#pair_style      lj/cut 3

#
#  pair_modify shift yes adds a constant to the potential such

#  that E(r_cut)=0. Forces remains unchanged.
#

pair_modify     shift yes

#
#  pair_coeff for lj/cut, specify 4:
#    * atom type interacting with
#    * atom type
#    * epsilon (energy units)
#    * sigma (distance units)
#

pair_coeff      1 1 1.0 1.0
###################################################################

###################################################################
# Pair interaction between non-bonded atoms
#
#  soft potential, for PUSHING apart overlapping atoms
#  potential E=A*(1 + cos(pi*r/r_c))
#
#  1.12246 = 2^(1/6) is the cut-off r_c

#pair_style     soft 1.12246152962189

#
#  pair_coeff for soft, specify 3:
#    * atom type interacting with
#    * atom type
#    * A
#
#

#pair_coeff      1 1 100.0
###################################################################

###################################################################


###################################################

###################################################################


###################################################
compute 1 all gyration
#compute 2 all coord/atom cutoff 1.1

#dump 2 all custom 10000 contact_number.dump id c_2


###
# Set up fixes
###
thermo_style   custom   step  temp enthalpy c_1
fix 1 all nve   ###NVE ensemble

fix 2 all   langevin   1.0 1.0 1.0  278111   ###Langevin integrator Tstart Tstop 1/friction rndseed


##### Sample thermodynamic info  (temperature, energy, pressure, etc.) #####
thermo 1000









############################################################################

###
# set timestep of integrator

timestep 0.01

###
# run integration for a number of steps
###
#run 0
#variable r equal c_1
#if "$r < 63.1" then "quit 1"
run 2000000
Neighbor list info ...
  update every 1 steps, delay 1 steps, check yes
  max neighbors/atom: 2000, page size: 100000
  master list distance cutoff = 5.1224615
  ghost atom cutoff = 5.1224615
  binsize = 2.5612308, bins = 781 781 781
  1 neighbor lists, perpetual/occasional/extra = 1 0 0
  (1) pair lj/cut, perpetual
      attributes: half, newton on
      pair build: half/bin/newton
      stencil: half/bin/3d/newton
      bin: standard
Per MPI rank memory allocation (min/avg/max) = 1858.0 | 1858.0 | 1858.0 Mbytes
Step Temp Enthalpy c_1 
       0            0    100.86814    1.8458438 
    1000   0.88031333    2.1297903    8.7498924 
    2000    1.3537691    3.2752479    11.086545 
    3000    1.1060903    2.6760248    13.738622 
    4000   0.88394375    2.1385736     15.57816 
    5000     1.130806    2.7358208    15.430594 
    6000    1.0723925     2.594498    16.070163 
    7000    1.1372137    2.7513234    17.609453 
    8000   0.88230309    2.1346043    19.259923 
    9000   0.93219144    2.2553019    20.547416 
   10000   0.98097106    2.3733171    20.667713 
   11000    1.0503726     2.541224    21.323183 
   12000   0.96692456    2.3393336    22.034354 
   13000   0.78711959    1.9043216    23.178584 
   14000   0.82014988    1.9842336    23.670248 
   15000   0.94069519    2.2758755    25.202987 
   16000   0.98506444    2.3832204    27.495085 
   17000    1.3292074    3.2158244    30.445264 
   18000    1.1628153    2.8132628    31.013988 
   19000    1.2167677    2.9437928    31.740594 
   20000   0.89873999    2.1743709     32.95491 
   21000    1.1644388    2.8171906    34.951211 
   22000    1.0860746    2.6275999     36.67413 
   23000    1.1752249     2.843286    36.898513 
   24000   0.98063169     2.372496    38.727823 
   25000   0.96944356     2.345428    38.597131 
   26000    1.1218708    2.7142035    40.291565 
   27000    1.0219003    2.4723394    39.963684 
   28000   0.60693894    1.4684007    40.854727 
   29000    1.1240928    2.7195793    43.366297 
   30000   0.99836071    2.4153888    43.764096 
   31000    1.0165169    2.4593151    44.435959 
   32000    1.1046912    2.6726401    45.412546 
   33000     1.027609    2.4861509    46.534008 
   34000    1.1635621    2.8150696    46.267642 
   35000    1.1814485    2.8583433    46.455858 
   36000   0.86750927    2.0988128    46.429538 
   37000   0.99820927    2.4150224     45.35369 
   38000    1.0442046    2.5263015    45.467641 
   39000   0.94218127    2.2794708    46.302933 
   40000    1.0288354     2.489118    48.034126 
   41000   0.81480813      1.97131    49.207438 
   42000   0.93431377    2.2604365    49.594871 
   43000   0.80972276    1.9590067    51.769298 
   44000    1.2901615    3.1213584    51.551053 
   45000   0.84259151    2.0385278     53.03215 
   46000    0.9572885    2.3160206     55.20846 
   47000   0.92259445    2.2320833    55.269734 
   48000    1.1289306    2.7312838     55.74659 
   49000      1.12593    2.7240242    56.943202 
   50000    1.1325067    2.7399356    57.339365 
   51000    1.3434251     3.250222    57.369612 
   52000    1.0779709    2.6079942    57.604664 
   53000   0.98060804    2.3724388     58.98311 
   54000   0.88824301     2.148975      59.1382 
   55000    1.3601924    3.2907882    60.596151 
   56000    1.0190821    2.4655212    60.917061 
   57000    1.0620679    2.5695192    61.092663 
   58000    1.1768622    2.8472473    60.930007 
   59000    1.0744359    2.5994418    61.628151 
   60000    0.8362253    2.0231257    62.269734 
   61000   0.80968335    1.9589113    61.998376 
   62000   0.93303471     2.257342    62.521231 
   63000   0.95732313    2.3161044    61.895991 
   64000   0.84730329    2.0499273    62.411313 
   65000   0.99730325    2.4128305     62.64904 
   66000    1.0336169     2.500686    62.505291 
   67000    1.0662244    2.5795751    63.228924 
   68000   0.87731406     2.122534    63.685801 
   69000    1.2831772     3.104461    64.232283 
   70000    1.2663097    3.0636526    63.942243 
   71000   0.87454682    2.1158391    63.467434 
   72000    1.0764414    2.6042937    62.867693 
   73000   0.84341733    2.0405258    64.365284 
   74000    1.2839681    3.1063744    65.453182 
   75000     1.173738    2.8396888    66.651226 
   76000   0.88893429    2.1506475    65.767372 
   77000    1.0990573    2.6590095    66.117423 
   78000    1.0150552    2.4557788    66.923685 
   79000    1.0351919    2.5044966    67.229508 
   80000    1.0211108    2.4704294    67.491507 
   81000   0.87926391    2.1272514    68.581834 
   82000    1.3607163    3.2920556    69.632448 
   83000    1.3585621    3.2868439    69.829514 
   84000    1.0875652    2.6312062    70.482723 
   85000    0.8889826    2.1507644    70.410377 
   86000    1.0041562      2.42941    69.680263 
   87000   0.91326644    2.2095156    69.574412 
   88000    1.1202037    2.7101702    70.412306 
   89000   0.87594001    2.1192097    69.966735 
   90000    0.9988026    2.4164579     70.42753 
   91000    1.1491688    2.7802471    70.129995 
   92000    1.0992088    2.6593762    71.072596 
   93000    1.1636917    2.8153831    72.622707 
   94000   0.98298652    2.3781932    74.502065 
   95000   0.95822201    2.3182791    75.863245 
   96000    1.1498578     2.781914    76.261963 
   97000    1.0414769    2.5197021    75.910078 
   98000    1.0362794    2.5071275    75.425701 
   99000   0.95952527    2.3214321      75.7637 
  100000    1.4009415    3.3893746    76.040284 
  101000    1.1795004      2.85363    75.980985 
  102000   0.90342168    2.1856976    78.218431 
  103000   0.93294899    2.2571346    79.482993 
  104000    1.0905885    2.6385205    80.034868 
  105000   0.74214124     1.795503     80.91326 
  106000     1.039969     2.516054    80.926855 
  107000   0.98646963    2.3866201    80.827497 
  108000    1.1644528    2.8172244    80.760963 
  109000    1.0229773     2.474945    80.241588 
  110000    1.1784806    2.8511626    80.258275 
  111000    1.0051578    2.4318334    81.398662 
  112000   0.94856616    2.2949181    83.301285 
  113000   0.89586703    2.1674202    84.693224 
  114000    1.1814391    2.8583204    84.997294 
  115000    1.0521951    2.5456334    84.619799 
  116000    1.0555902    2.5538473    85.759591 
  117000   0.88981541    2.1527792    86.614157 
  118000    0.9531239    2.3059449    85.984119 
  119000    1.0372644    2.5095106    86.931367 
  120000   0.76383911    1.8479978    87.757782 
  121000    1.1055864    2.6748058    88.029375 
  122000   0.98709635    2.3881363    89.865966 
  123000   0.98868317    2.3919754    89.191411 
  124000   0.94388579    2.2835947    90.280371 
  125000    1.1545197    2.7931929    90.244387 
  126000    1.0438564    2.5254589    89.863257 
  127000   0.92320373    2.2335574    91.043148 
  128000    1.0495551    2.5392462    91.117308 
  129000    1.0368646    2.5085433    90.800878 
  130000    1.1772922    2.8482877    91.940399 
  131000    1.0878273    2.6318402    93.297959 
  132000   0.88065765    2.1306233    94.127539 
  133000    1.2506364    3.0257332     94.74819 
  134000    1.1005854    2.6627066    95.468278 
  135000   0.98687314    2.3875963    96.329266 
  136000    1.1106946    2.6871643     95.71533 
  137000    1.1027088    2.6678439    96.561862 
  138000     1.028776    2.4889741    96.837706 
  139000   0.92031095    2.2265588    97.100834 
  140000   0.94119157    2.2770764    97.493801 
  141000      1.14388    2.7674517     96.84788 
  142000    1.0329332    2.4990319    97.505061 
  143000   0.96263996    2.3289676     98.42956 
  144000    1.3061051    3.1599317    99.020797 
  145000    1.0534853    2.5487549    100.73911 
  146000    1.2998893    3.1448934    102.37947 
  147000    1.0820315    2.6178181    103.40956 
  148000    1.1158594    2.6996597     103.7255 
  149000    1.0145379    2.4545271    104.01873 
  150000    1.0042122    2.4295457    104.12535 
  151000    1.0385444    2.5126074    105.63444 
  152000   0.95301666    2.3056855    106.63685 
  153000    1.0718209     2.593115    106.28511 
  154000    1.0024303    2.4252347    105.94702 
  155000    1.1872539    2.8723884    106.49584 
  156000    1.1587207    2.8033565    106.43366 
  157000   0.91770992    2.2202659    106.29111 
  158000    1.0582014    2.5601646    107.22267 
  159000     1.104216    2.6714903    107.74127 
  160000    0.9822911    2.3765107    108.23841 
  161000    1.0363257    2.5072396    109.80239 
  162000    1.2126336    2.9337909    110.32578 
  163000     1.269473    3.0713057    110.31702 
  164000    1.1507401    2.7840485    111.48597 
  165000   0.80638896     1.950941    112.20042 
  166000    1.1916746    2.8830838    111.85854 
  167000   0.93874002    2.2711452    111.10704 
  168000    1.0403093    2.5168773    112.39532 
  169000    1.0781172     2.608348     112.7651 
  170000    1.4133477    3.4193897    111.86548 
  171000    1.0108176    2.4455264    112.46903 
  172000   0.83485216    2.0198036     112.9651 
  173000    1.0373875    2.5098084    112.04891 
  174000    1.1739609    2.8402279    112.11488 
  175000   0.88633244    2.1443527    111.89824 
  176000    0.9525825    2.3046351    112.52816 
  177000    1.1304137    2.7348718     113.5827 
  178000    1.0805063    2.6141282    114.21076 
  179000    1.2241537    2.9616621    114.11233 
  180000   0.82649508    1.9995849     113.2064 
  181000    1.1335578    2.7424786    113.42432 
  182000   0.84888172    2.0537461    114.61112 
  183000    0.9613565    2.3258625    115.95367 
  184000   0.98021789    2.3714949    116.32127 
  185000    1.1866012    2.8708093    117.48757 
  186000    1.0501531    2.5406931    115.98703 
  187000   0.94414885    2.2842311    117.29449 
  188000   0.97449705    2.3576542    117.47491 
  189000   0.88473533    2.1404887    116.99465 
  190000   0.82544304    1.9970396     115.8395 
  191000   0.93110812    2.2526809    115.81592 
  192000    1.0996365    2.6604109    115.45086 
  193000    1.2748085     3.084214    115.94182 
  194000   0.82588743    1.9981148     114.8037 
  195000    1.0283847    2.4880276    114.52718 
  196000    1.0623679    2.5702448     114.6045 
  197000      1.01374    2.4525967    115.28267 
  198000   0.97791816     2.365931    115.54379 
  199000     1.053145    2.5479315    115.77675 
  200000   0.84076685    2.0341134    116.40011 
  201000   0.71013436     1.718067     117.2293 
  202000    1.2145588    2.9384488    117.88837 
  203000   0.94329389    2.2821626    118.00278 
  204000    1.1450766    2.7703467    118.26195 
  205000    1.1223207    2.7152921    119.01286 
  206000    1.4408905    3.4860254    118.18487 
  207000    1.3361276    3.2325669    118.55503 
  208000     1.081078    2.6155112    119.94487 
  209000    1.0048278    2.4310349     119.1919 
  210000    1.2217871    2.9559365    118.79536 
  211000    1.2003619    2.9041014     118.8519 
  212000    1.1284729    2.7301763    118.28376 
  213000    0.9027841    2.1841551    120.16916 
  214000    1.1341757    2.7439734    119.91916 
  215000    1.0335372    2.5004932    120.02416 
  216000    1.0593153    2.5628596    119.89327 
  217000     1.184534    2.8658081     121.0462 
  218000   0.91694184    2.2184077    122.09225 
  219000    1.0331639    2.4995901    122.39593 
  220000   0.81140509    1.9630768    123.38785 
  221000    1.0171582    2.4608665    123.63332 
  222000    1.0863298    2.6282172     123.1283 
  223000    1.0549372    2.5522673    124.75729 
  224000    1.2130638    2.9348319    125.28886 
  225000    1.0588256    2.5616748    125.86619 
  226000   0.90334559    2.1855135    125.97632 
  227000    1.1488493    2.7794741    125.48036 
  228000    1.0481016    2.5357296    126.20072 
  229000   0.80155223    1.9392393    125.99129 
  230000   0.92607895    2.2405136    124.76968 
  231000    1.2184353    2.9478274    125.12582 
  232000    1.3110889    3.1719893    125.96273 
  233000   0.96322698    2.3303879    126.15349 
  234000   0.92014547    2.2261584    126.91144 
  235000   0.90433862     2.187916     127.0023 
  236000    1.1537524    2.7913363    127.42638 
  237000   0.94654218    2.2900214    126.64602 
  238000    1.1830155    2.8621344    127.74832 
  239000   0.87387965    2.1142249    127.42191 
  240000    1.2406152    3.0014883    128.98309 
  241000     1.300046    3.1452727    130.35642 
  242000    1.2263325    2.9669335    130.46294 
  243000   0.88184309    2.1334913    129.73178 
  244000   0.98646691    2.3866135      129.526 
  245000   0.89615845    2.1681253    129.78909 
  246000   0.88820098    2.1488733    130.36894 
  247000    1.1098405     2.685098    130.53098 
  248000    1.1926404    2.8854204    130.81862 
  249000    1.2421766     3.005266    132.68278 
  250000    1.1000234    2.6613468    131.71524 
  251000    1.0298064     2.491467     133.3956 
  252000    1.2405976    3.0014459     131.7533 
  253000     1.102848    2.6681805    131.28387 
  254000    1.1807893    2.8567483     131.0169 
  255000    1.0299201    2.4917421    131.82136 
  256000   0.87341762    2.1131071    131.95888 
  257000    1.0236593     2.476595    132.54841 
  258000   0.89015289    2.1535957    132.15052 
  259000    1.1515116    2.7859151    131.14206 
  260000   0.98944782    2.3938254    130.55078 
  261000    1.0908815    2.6392293     131.2257 
  262000     0.726509    1.7576831    130.77202 
  263000   0.72264565    1.7483362    132.38228 
  264000    1.0260168    2.4822988     133.8602 
  265000    1.1942995    2.8894342    133.61857 
  266000    1.0885373    2.6335579    134.72794 
  267000    1.4073328    3.4048373    133.57349 
  268000   0.74791178     1.809464    133.33675 
  269000    1.4056587    3.4007872    134.12999 
  270000    0.8869742    2.1459053     134.1458 
  271000    1.1901009    2.8792763    133.93551 
  272000    1.0235143    2.4762443    134.24511 
  273000     1.118772    2.7067066     135.5641 
  274000    0.9730729    2.3542086    135.65304 
  275000     1.044074    2.5259855    134.72875 
  276000    1.0367502    2.5082667    133.91875 
  277000    1.2260581    2.9662695    133.61627 
  278000   0.83882008    2.0294034    134.24864 
  279000    1.1007356    2.6630699    135.22064 
  280000   0.97544439    2.3599461    136.29307 
  281000    1.2758569    3.0867506    136.21032 
  282000   0.76861244    1.8595462    136.35501 
  283000    1.1159852    2.6999643     137.5595 
  284000    0.9417935    2.2785327    137.45411 
  285000   0.97015757    2.3471554    138.01058 
  286000   0.80353595    1.9440386    138.32862 
  287000   0.94206305    2.2791848    139.49645 
  288000   0.97381193    2.3559966    138.93047 
  289000    1.3098477    3.1689863    137.18124 
  290000   0.99130203    2.3983114    137.28772 
  291000    1.0047118    2.4307544    137.52295 
  292000   0.76754505    1.8569638    137.71069 
  293000    1.0733674    2.5968567    138.15698 
  294000   0.97113195    2.3495128    137.88894 
  295000   0.88409686     2.138944    137.28854 
  296000    0.9804678    2.3720995    137.72317 
  297000   0.92248104     2.231809    139.35985 
  298000   0.96148365    2.3261701    140.55405 
  299000    1.1587073    2.8033241    140.87682 
  300000    1.2251786    2.9641418    142.12406 
  301000    1.2003152    2.9039884    142.90858 
  302000    1.1304544    2.7349704     143.5778 
  303000   0.94908587    2.2961755    143.73959 
  304000    1.1633513    2.8145596    144.47643 
  305000    1.0626096    2.5708296    144.71992 
  306000    1.1108983    2.6876572     144.9966 
  307000    0.8814817     2.132617    143.72928 
  308000   0.85314426    2.0640587    141.88247 
  309000    1.2721527    3.0777888    141.50244 
  310000    1.0364795    2.5076117    142.51969 
  311000   0.72003194    1.7420128    141.40569 
  312000   0.94090351    2.2763795    141.41888 
  313000   0.96970875    2.3460696    139.93577 
  314000    1.2753822    3.0856021    140.46013 
  315000     1.275679    3.0863202    140.90113 
  316000   0.85188918    2.0610222    140.69252 
  317000   0.90691128    2.1941402    141.00648 
  318000   0.96781262    2.3414821    139.94644 
  319000   0.78066249    1.8886996    139.64696 
  320000    1.0189572    2.4652191    140.13929 
  321000   0.90766516    2.1959641    141.69567 
  322000    1.1122104    2.6908316    141.79183 
  323000    1.0103705    2.4444447    142.44718 
  324000   0.86439589    2.0912804    141.82715 
  325000    1.1017269    2.6654683     142.1399 
  326000   0.95199395    2.3032112    141.42002 
  327000    1.0802586    2.6135288    141.53461 
  328000   0.98250849    2.3770367    141.13075 
  329000   0.94795649    2.2934431    141.28444 
  330000    1.1425351    2.7641979    142.31734 
  331000   0.84554045    2.0456624    142.36216 
  332000    1.1359015    2.7481488    141.71657 
  333000    1.2159372    2.9417836    142.28407 
  334000   0.99812977    2.4148301    141.90965 
  335000    1.0660169    2.5790731    141.52965 
  336000    1.1437316    2.7670927    140.27374 
  337000   0.86749568    2.0987799    138.88802 
  338000    1.1642793    2.8168048    138.62212 
  339000    1.1083457    2.6814816    138.53921 
  340000    1.1357833    2.7478627    137.85045 
  341000   0.96866687    2.3435489    138.93919 
  342000     1.089421    2.6356958    138.63433 
  343000   0.99891784    2.4167367    137.92681 
  344000    1.0775586    2.6069966    138.28428 
  345000   0.97487739    2.3585743    138.80709 
  346000    1.0880809    2.6324539    138.61412 
  347000   0.91333075    2.2096712    138.61327 
  348000    1.2803918    3.0977222    139.63085 
  349000    1.1231892    2.7173933    140.45505 
  350000    1.2238769    2.9609925    141.00697 
  351000   0.87598643     2.119322    141.56869 
  352000    1.0410813    2.5187451    142.39515 
  353000    1.0089718    2.4410608    142.41208 
  354000   0.99651547    2.4109245    143.13633 
  355000    1.4197322     3.434836    143.20563 
  356000    1.1552535    2.7949682        143.5 
  357000    1.0229245    2.4748173    143.59279 
  358000   0.92320719    2.2335658    143.47921 
  359000   0.92260318    2.2321045    143.13089 
  360000    1.1593578     2.804898    143.55287 
  361000    1.0200796    2.4679345    144.49918 
  362000     0.867531    2.0988653    144.57654 
  363000    1.3109148    3.1715681    145.04384 
  364000    1.0237073    2.4767112    145.31335 
  365000    1.0182894    2.4636034    145.38643 
  366000    1.1162974    2.7007194    144.16575 
  367000    1.0335834     2.500605    144.20822 
  368000    1.1730609    2.8380505    144.24217 
  369000   0.84540136    2.0453259    143.06068 
  370000    1.0772861    2.6063372    143.24295 
  371000    1.1740203    2.8403716    144.02729 
  372000    1.0924359      2.64299    144.02845 
  373000    1.1049671    2.6733074    145.82679 
  374000     0.928036    2.2452484     146.8285 
  375000   0.88784019    2.1480005    147.10739 
  376000    1.0089323    2.4409652    146.61956 
  377000    1.3439712    3.2515433    146.44792 
  378000    1.1382925    2.7539335    146.61564 
  379000   0.99484967    2.4068944    147.16959 
  380000   0.92495148    2.2377858    147.03779 
  381000    1.0873157    2.6306024    147.10904 
  382000   0.94198493    2.2789958    147.93968 
  383000   0.92420989    2.2359917      147.495 
  384000    1.1808701    2.8569437    149.24285 
  385000   0.87984292    2.1286522    149.49731 
  386000    1.0910532    2.6396448    148.93468 
  387000    1.2443947    3.0106322    149.84169 
  388000   0.94596412    2.2886229    150.85291 
  389000    1.0544068    2.5509841    152.06084 
  390000    0.8105459    1.9609981     153.6403 
  391000   0.70505415    1.7057762    154.84766 
  392000    1.1973782    2.8968828    153.97184 
  393000   0.91873565    2.2227475     154.1836 
  394000    1.0541428    2.5503455    153.98915 
  395000    1.0980053    2.6564643    154.45716 
  396000    1.2297572     2.975219    154.16785 
  397000    1.2081892    2.9230384    155.29317 
  398000   0.95985337    2.3222259    155.55129 
  399000   0.96266431    2.3290266    156.38994 
  400000   0.77757833    1.8812379    157.37246 
  401000   0.95421748    2.3085907    156.61324 
  402000    1.0804106    2.6138966     156.3522 
  403000    1.0472391     2.533643     156.0336 
  404000   0.91975828    2.2252216    155.46435 
  405000    1.2347133    2.9872096    154.92527 
  406000   0.95422962      2.30862    154.41144 
  407000    1.2691998    3.0706448    153.41552 
  408000     1.204177    2.9133316    153.54443 
  409000    1.0393945    2.5146641    154.21724 
  410000    1.2073479     2.921003    154.34689 
  411000    1.1369544    2.7506962    154.07028 
  412000   0.87553822    2.1182376    152.38445 
  413000   0.96043991    2.3236449    152.51269 
  414000    1.0680854    2.5840775    152.64542 
  415000   0.87678031    2.1212427    153.44206 
  416000   0.99718263    2.4125386    153.38984 
  417000    1.0118743    2.4480829    154.51991 
  418000   0.86643718     2.096219    155.56824 
  419000    1.1270738    2.7267914    156.68932 
  420000   0.93432656    2.2604675    156.02898 
  421000    1.2077989    2.9220941    157.16964 
  422000    1.0149764    2.4555881    157.83803 
  423000   0.95814929    2.3181031     158.1348 
  424000    1.0144397    2.4542896    157.12395 
  425000    1.0534801    2.5487422     157.0543 
  426000    1.0514207    2.5437598    156.75962 
  427000    1.0058567    2.4335242    155.82739 
  428000   0.87570385    2.1186383      155.386 
  429000   0.93263464    2.2563741    154.91091 
  430000    1.0155372    2.4569447    155.63426 
  431000   0.87267985    2.1113222    157.40898 
  432000   0.68150066    1.6487919    158.19148 
  433000    1.2767427    3.0888936    158.26755 
  434000      1.07619    2.6036854     157.4997 
  435000     1.418095     3.430875    156.74669 
  436000    1.2009345    2.9054866    157.37768 
  437000    1.2026683    2.9096814    157.94317 
  438000    1.1721289    2.8357958    158.13161 
  439000    1.1870549    2.8719069    158.83091 
  440000     1.203626    2.9119984    159.81548 
  441000    1.1143406    2.6959853    158.55752 
  442000    1.1142248    2.6957051    158.66088 
  443000   0.83918725    2.0302917    158.52542 
  444000    1.1674446    2.8244626    158.10006 
  445000    1.1931555    2.8866665    158.10565 
  446000   0.95808264    2.3179419    159.73628 
  447000    1.1235502    2.7182665    159.77111 
  448000   0.94679827     2.290641     159.4935 
  449000    1.0503314    2.5411242    160.28514 
  450000   0.99153417     2.398873     160.1563 
  451000    1.0531519    2.5479481    161.04907 
  452000   0.79204081    1.9162278    162.33359 
  453000   0.90984358    2.2012345    162.21492 
  454000   0.95192759    2.3030506    162.33438 
  455000    1.0487847    2.5373823    163.09636 
  456000    1.0049585    2.4313513    162.99423 
  457000    1.1021475    2.6664858    162.35742 
  458000    1.3476363    3.2604105    162.54711 
  459000    1.0788879    2.6102127    162.66628 
  460000    1.2344331    2.9865318    164.15356 
  461000    1.2220887    2.9566663    163.35432 
  462000   0.90939884    2.2001585    164.19803 
  463000    1.0453804    2.5291462    163.75676 
  464000    1.2033017    2.9112139    166.32638 
  465000   0.98501142    2.3830921    167.06707 
  466000    1.3202916    3.1942539    166.99819 
  467000    1.1637332    2.8154835    168.70664 
  468000   0.98751998    2.3891612     168.2521 
  469000    1.1138397    2.6947735     168.4233 
  470000    1.1780485    2.8501173    169.15967 
  471000   0.62713621     1.517265    170.44981 
  472000    0.9875288    2.3891826    170.27767 
  473000   0.88109259    2.1316756    172.12224 
  474000    1.1256402    2.7233231    172.18554 
  475000    1.4670179    3.5492369    172.22996 
  476000    1.1308419    2.7359079    172.70689 
  477000    1.3256454    3.2072066    171.99338 
  478000    1.0466389    2.5321908    172.77502 
  479000   0.90686509    2.1940285    174.05274 
  480000   0.91273739    2.2082356    173.93427 
  481000   0.92236665    2.2315322     173.1147 
  482000    1.0052889    2.4321505    172.88371 
  483000    1.0783217    2.6088429    174.08658 
  484000    1.0129134    2.4505969    174.25944 
  485000   0.94302757    2.2815183    174.36125 
  486000   0.98719988    2.3883868     175.9076 
  487000    0.8284988    2.0044326    176.71725 
  488000     1.156008    2.7967936    178.02237 
  489000    1.2531534    3.0318227    179.28134 
  490000   0.95615413    2.3132761     179.9079 
  491000    1.3315658    3.2215301    181.08134 
  492000    1.0093074    2.4418727    181.65865 
  493000   0.91412535    2.2115936    181.91418 
  494000   0.91322606    2.2094179    181.92027 
  495000    0.9289965    2.2475722    181.99125 
  496000    1.0653842    2.5775424    182.59227 
  497000    1.0055657    2.4328202    182.22506 
  498000   0.91944343    2.2244599    182.62503 
  499000   0.87950294    2.1278297    182.74943 
  500000    1.1115516    2.6892378    183.78331 
  501000    1.2339296    2.9853136    183.70443 
  502000    1.3153109    3.1822037    184.63421 
  503000   0.93975797     2.273608    185.74439 
  504000   0.88578858    2.1430369    186.56518 
  505000    0.8986284     2.174101     185.6643 
  506000    1.1507537    2.7840815    185.51089 
  507000   0.89651839    2.1689961    185.01849 
  508000     1.104949    2.6732637    186.18774 
  509000    1.3360165     3.232298    187.22448 
  510000     1.027468    2.4858096    187.20682 
  511000   0.75952175    1.8375526    186.26956 
  512000    1.0970779    2.6542208    185.80241 
  513000   0.87443741    2.1155744    186.18496 
  514000   0.86244368    2.0865573    186.80306 
  515000    1.0061446    2.4342208    187.13486 
  516000    1.0804378    2.6139623    187.58936 
  517000    1.2837681    3.1058907    188.37268 
  518000   0.93552189    2.2633594    188.89748 
  519000    1.3740301    3.3242663    189.34635 
  520000   0.98183729    2.3754128    190.24367 
  521000    1.0618854    2.5690775    190.71188 
  522000      1.27118    3.0754355    191.12378 
  523000    1.1468213    2.7745677    191.98974 
  524000    1.1363983    2.7493506     193.0819 
  525000    1.0173052    2.4612221    193.60979 
  526000    1.1799479    2.8547126    193.90688 
  527000   0.98142991    2.3744272    194.58675 
  528000   0.86610709    2.0954204    194.19232 
  529000    1.3268107    3.2100259    193.81646 
  530000   0.94933786    2.2967852    193.01854 
  531000    1.2427699    3.0067014    193.92874 
  532000   0.91842716    2.2220012    193.70521 
  533000    1.0892003    2.6351621    192.34117 
  534000    1.1107011    2.6871801    191.14118 
  535000    1.3290477    3.2154379    192.81189 
  536000    1.2608472    3.0504368      193.386 
  537000   0.88658269    2.1449581    192.74105 
  538000    1.0393217    2.5144879    193.53544 
  539000   0.76330917    1.8467157    192.42388 
  540000    1.1109743    2.6878412    192.90859 
  541000    1.1622987     2.812013    192.96291 
  542000    1.1813794     2.858176    193.80493 
  543000    1.1454051    2.7711414    193.70936 
  544000    0.8972354    2.1707308    192.87757 
  545000   0.81028133     1.960358    193.22477 
  546000   0.98200615    2.3758213     192.6116 
  547000   0.96654567    2.3384169    191.65815 
  548000    1.1137263     2.694499    191.08659 
  549000    1.1525558    2.7884413    191.54536 
  550000    1.0950218    2.6492462    191.07954 
  551000    1.1855188    2.8681907    191.20889 
  552000    1.0973042    2.6547681    191.65284 
  553000   0.97396562    2.3563684    192.48926 
  554000   0.81362936    1.9684581    194.12932 
  555000    1.0050939    2.4316787    194.25959 
  556000    1.2216961    2.9557163    195.32375 
  557000    1.1101189    2.6857716    194.34782 
  558000   0.99905589    2.4170707    194.09323 
  559000    1.0596157    2.5635864    194.11943 
  560000   0.90790448    2.1965431    194.12917 
  561000    1.3474607    3.2599855    193.67649 
  562000    1.4307882    3.4615843    194.48904 
  563000    1.3343065    3.2281608    194.86792 
  564000   0.88482618    2.1407085    195.86567 
  565000   0.83223853    2.0134803    197.21787 
  566000   0.94158615     2.278031     197.8725 
  567000    1.0668072    2.5809851    197.82994 
  568000   0.94895647    2.2958624    197.93171 
  569000   0.96084202    2.3246178    198.05725 
  570000   0.93419575     2.260151    198.73282 
  571000    1.1894916    2.8778022     198.1028 
  572000    1.0683518    2.5847221    199.24439 
  573000    1.0975606    2.6553884     199.1078 
  574000   0.99545909    2.4083688    199.05628 
  575000    1.0703205     2.589485    200.89189 
  576000    1.1743138    2.8410818    201.03998 
  577000   0.83087432    2.0101798    201.88611 
  578000    1.2760002    3.0870972    200.88637 
  579000    1.0271582    2.4850601    201.41472 
  580000   0.90214306    2.1826042    202.06088 
  581000    1.2162386    2.9425128    202.03919 
  582000   0.96125401    2.3256145    202.38076 
  583000   0.76299337    1.8459517    203.20196 
  584000   0.87188328     2.109395    202.13614 
  585000   0.91852206    2.2222308    202.29261 
  586000    1.3945017    3.3737944    201.82955 
  587000    1.0996074    2.6603405    202.90925 
  588000    1.0986858    2.6581107    201.88773 
  589000     1.164911    2.8183331     202.2421 
  590000    1.3209657    3.1958846    203.55903 
  591000   0.80994241    1.9595381    202.23107 
  592000    0.9579734    2.3176776    202.78391 
  593000   0.91092236    2.2038444    203.14485 
  594000     1.152835     2.789117      203.301 
  595000    1.0125643    2.4497524    203.58045 
  596000   0.84535492    2.0452135    203.92912 
  597000   0.75000212    1.8145212    203.16843 
  598000    1.0496778    2.5395431     202.2335 
  599000   0.85760992    2.0748627    201.94616 
  600000   0.97060265    2.3482322    202.74345 
  601000   0.99635644    2.4105398    203.93493 
  602000    1.2342032    2.9859756    205.42404 
  603000    1.0727404    2.5953396    205.28996 
  604000   0.98726171    2.3885364    206.32423 
  605000   0.96500897    2.3346991    204.34521 
  606000    0.8361324     2.022901    204.22004 
  607000   0.86452156    2.0915844    203.61033 
  608000    1.3659145    3.3046318    203.64556 
  609000    1.2088825    2.9247157    205.09981 
  610000    1.0855148    2.6262455     206.2655 
  611000    1.0791931    2.6109511    206.31549 
  612000    1.1408617    2.7601492    207.09067 
  613000    1.1212039    2.7125901    206.53885 
  614000   0.83109196    2.0107063    208.25569 
  615000   0.93764257    2.2684901    208.69967 
  616000    1.0872965     2.630556    209.42883 
  617000    1.1076688    2.6798438    210.75776 
  618000    1.0080297    2.4387815    210.29972 
  619000   0.86459061    2.0917515    210.24713 
  620000    1.1331357    2.7414573    210.77145 
  621000    1.1598116    2.8059959    210.20202 
  622000   0.65457008    1.5836373    210.96644 
  623000    1.0830391    2.6202559     210.2991 
  624000   0.79553671    1.9246856    209.45845 
  625000    1.0072907    2.4369936    209.18625 
  626000   0.92494547    2.2377713    209.04365 
  627000   0.97316963    2.3544427     209.1615 
  628000    1.0225623    2.4739411    211.24946 
  629000   0.85440252    2.0671029    213.29672 
  630000     1.190426    2.8800629    214.85824 
  631000    1.0803097    2.6136525    214.41109 
  632000    1.0786242    2.6095747    214.89501 
  633000   0.95148128    2.3019708    213.96613 
  634000   0.88765474    2.1475518    212.93091 
  635000    1.0583721    2.5605776    212.78752 
  636000    0.9059176    2.1917361    213.73487 
  637000     1.284168    3.1068581    214.51961 
  638000    1.2350755    2.9880858    214.58235 
  639000    1.0697999    2.5882256    216.96666 
  640000    1.0014733    2.4229192    216.56438 
  641000   0.82928633    2.0063379     216.3452 
  642000   0.82001429    1.9839055    216.09231 
  643000   0.94199731    2.2790258    216.92651 
  644000   0.91775206    2.2203679    218.04191 
  645000     1.014197    2.4537025      217.333 
  646000    1.0114693    2.4471032    215.69186 
  647000   0.98032495    2.3717539    215.69697 
  648000   0.90349197    2.1858677    215.81865 
  649000     1.257242    3.0417146     216.7517 
  650000   0.86510614    2.0929987    217.98237 
  651000   0.98694406    2.3877679    217.27676 
  652000    1.0737293    2.5977321    218.31298 
  653000    1.1739914    2.8403018    218.98357 
  654000    1.1420191    2.7629494    218.22953 
  655000     1.119467    2.7083878    216.62272 
  656000   0.98141059    2.3743805    216.76018 
  657000    1.1034627    2.6696678    217.85261 
  658000   0.90928155    2.1998747    217.47545 
  659000     1.294807    3.1325975    217.15449 
  660000     1.124366    2.7202404    216.95216 
  661000    1.0928029     2.643878    216.85571 
  662000     1.159673    2.8056604    216.72678 
  663000   0.89925398    2.1756145    217.24878 
  664000    1.1876407    2.8733243    217.13159 
  665000    1.0843064    2.6233219    217.56501 
  666000   0.86460957    2.0917973    216.91285 
  667000   0.97092278    2.3490067    216.00726 
  668000    0.9259055     2.240094    216.50433 
  669000   0.72388815    1.7513423    217.59268 
  670000   0.85508446    2.0687527    217.11322 
  671000   0.94292415    2.2812681    217.53091 
  672000   0.95727443    2.3159865    217.23873 
  673000    1.2151202     2.939807    217.10017 
  674000    1.4809112    3.5828496    218.14409 
  675000   0.94359392    2.2828885    218.37659 
  676000    1.1507187    2.7839969    218.05732 
  677000   0.99644977    2.4107656    218.03471 
  678000   0.87584233    2.1189734    216.99086 
  679000    1.0494145    2.5389062    218.00186 
  680000    1.1163876    2.7009377     217.6806 
  681000   0.94520995    2.2867983    217.84735 
  682000    1.1409353    2.7603273    218.03584 
  683000    1.0310696    2.4945232    217.98217 
  684000   0.97722295    2.3642491    217.98631 
  685000    1.2400686    3.0001659     218.9485 
  686000   0.97351873    2.3552872    218.68444 
  687000    1.0590863    2.5623056    218.02419 
  688000   0.78070044    1.8887914    218.63291 
  689000    1.0968659    2.6537079    218.81048 
  690000    1.0977509    2.6558491    219.76604 
  691000    1.1114516    2.6889957    219.56332 
  692000    1.1636111    2.8151881    221.51648 
  693000   0.80289124    1.9424788    221.82123 
  694000   0.87632031    2.1201298    222.31921 
  695000   0.98600207    2.3854889    222.24383 
  696000   0.93003656    2.2500885    223.18773 
  697000   0.92169415    2.2299052    222.73246 
  698000    0.8324379    2.0139627    221.90546 
  699000   0.84130189    2.0354078     221.7337 
  700000    1.0653134    2.5773712    220.82351 
  701000   0.80282415    1.9423165    221.47048 
  702000   0.85889221     2.077965    222.64914 
  703000   0.89639714    2.1687028    222.17865 
  704000    1.1473829    2.7759263    220.93593 
  705000   0.87020768    2.1053412    221.44326 
  706000    1.2844532     3.107548    222.57152 
  707000    1.0212913     2.470866    223.48279 
  708000   0.66350657    1.6052578    222.67271 
  709000    1.1040767    2.6711533    221.72955 
  710000   0.95990807    2.3223582    222.67667 
  711000    1.0167253    2.4598192    223.17039 
  712000    1.1162095    2.7005069    221.94819 
  713000   0.78474662    1.8985805    222.51328 
  714000    1.2269626    2.9684579    223.40127 
  715000    1.0509409     2.542599    223.54484 
  716000   0.97189498    2.3513588    223.42545 
  717000    1.2936543    3.1298088    223.71081 
  718000   0.92295276    2.2329502    224.56402 
  719000   0.96337951    2.3307569    225.46195 
  720000    1.2709974    3.0749938    227.03118 
  721000    1.1700511    2.8307689    227.77957 
  722000    1.0269438    2.4845415    226.74631 
  723000   0.79543403    1.9244372    227.59866 
  724000   0.85950335    2.0794436    227.15671 
  725000    1.6415769     3.971557    227.24312 
  726000     1.141583    2.7618943    227.80343 
  727000    1.2862221    3.1118277    228.60304 
  728000    1.0658133    2.5785805    229.07106 
  729000    1.3606013    3.2917773    229.26313 
  730000    1.0785796    2.6094667    229.36015 
  731000   0.78525761    1.8998168    230.15722 
  732000    1.2147896    2.9390072    230.11144 
  733000    1.1343831    2.7444751    230.28071 
  734000      1.45778    3.5268872    230.08517 
  735000   0.98182277    2.3753777    230.38805 
  736000    1.3406709    3.2435587    230.16438 
  737000   0.93739325    2.2678869    230.81214 
  738000   0.84317631    2.0399427    231.29971 
  739000    1.0961259    2.6519174    231.57403 
  740000   0.91124244    2.2046188    230.60885 
  741000     1.203509    2.9117154    229.85276 
  742000    1.0677133    2.5831775    229.70652 
  743000   0.90600068    2.1919371     228.5043 
  744000    1.0073674    2.4371792    228.90588 
  745000    1.1035032    2.6697659    228.26056 
  746000     1.016387    2.4590007     227.9449 
  747000    1.1836759     2.863732    227.40885 
  748000    1.0293333    2.4903226    228.66683 
  749000   0.88675028    2.1453636    229.22019 
  750000   0.98888571    2.3924654    228.51794 
  751000   0.95805523    2.3178756    228.03027 
  752000   0.97617849    2.3617222    229.66854 
  753000    1.1367604    2.7502267    230.84008 
  754000    1.0317985    2.4962867    230.27384 
  755000    1.1902602    2.8796618    229.76441 
  756000    1.1223471    2.7153559    231.67392 
  757000    0.8342478    2.0183415    231.66552 
  758000   0.82028929    1.9845709    231.77852 
  759000    1.0770823    2.6058442    231.43711 
  760000   0.94567653    2.2879271    231.60262 
  761000    1.0607881    2.5664227    232.06048 
  762000   0.87592575    2.1191752    231.92152 
  763000   0.92976987    2.2494432    233.07249 
  764000   0.98333617    2.3790391    233.91238 
  765000    0.6674162    1.6147166    233.59925 
  766000   0.80277145     1.942189    235.16552 
  767000     1.021488    2.4713419    236.26267 
  768000   0.91686036    2.2182105    236.56493 
  769000   0.91081959    2.2035958    236.39732 
  770000    1.1666808    2.8226149    237.40031 
  771000   0.77747527    1.8809886    237.79807 
  772000    1.0107788    2.4454327    238.63636 
  773000   0.82985896    2.0077233    239.76549 
  774000    1.2212795    2.9547086    240.61256 
  775000    1.0170179    2.4605271    240.22023 
  776000    1.2882059    3.1166273    239.53647 
  777000     1.277126    3.0898209    240.10734 
  778000   0.96258089    2.3288247    240.47413 
  779000    1.1283137    2.7297913    238.99025 
  780000    1.1412575    2.7611067    239.31002 
  781000   0.95011765    2.2986717    239.06929 
  782000    1.0292448    2.4901085    238.25829 
  783000    1.0565624    2.5561994    238.70075 
  784000   0.92215324    2.2310159    239.30249 
  785000    1.1167795    2.7018859    239.19876 
  786000    1.0037143    2.4283411    238.62642 
  787000    1.0581845    2.5601238    238.85165 
  788000    1.3027462    3.1518054    238.87858 
  789000    1.1075795    2.6796279    241.34629 
  790000   0.87731935    2.1225468    241.74993 
  791000   0.92528316    2.2385883    240.83179 
  792000    1.0883149      2.63302    240.06225 
  793000    1.1446158    2.7692319     241.1703 
  794000   0.86120814    2.0835681    241.71598 
  795000    1.1295556    2.7327959    242.48791 
  796000    1.0147693    2.4550869    244.22526 
  797000    1.0509195    2.5425471    245.00205 
  798000   0.98488764    2.3827927    246.15046 
  799000    1.1282342    2.7295988    246.98601 
  800000   0.94872631    2.2953056     246.6235 
  801000    1.0114262    2.4469988     245.2129 
  802000   0.98856313     2.391685    245.50204 
  803000   0.91701995    2.2185967    246.10944 
  804000   0.97730509    2.3644478    244.87076 
  805000    0.7787675    1.8841149    245.83708 
  806000    1.2357132    2.9896286    245.82814 
  807000    1.1808108    2.8568003    246.02253 
  808000    1.0187921    2.4648195    245.63962 
  809000    1.0477907    2.5349775    246.37257 
  810000     1.055709    2.5541347      247.693 
  811000    1.0303979    2.4928981    247.29485 
  812000   0.81976957    1.9833135     248.5319 
  813000    0.8739696    2.1144426    248.68793 
  814000    1.0955161    2.6504422    248.82605 
  815000   0.88722114    2.1465027    248.75971 
  816000    1.0746851    2.6000447    248.40959 
  817000    1.1294983    2.7326572    248.10045 
  818000     1.105874    2.6755017    247.40026 
  819000   0.70638749     1.709002    249.21985 
  820000    1.0861564    2.6277977    249.45987 
  821000   0.90669593    2.1936192    249.93167 
  822000    1.0166202     2.459565    250.10134 
  823000    1.2971361    3.1382325    250.94911 
  824000   0.93780819    2.2688908    250.38866 
  825000   0.86163353    2.0845972    250.36838 
  826000    1.3557018    3.2799238    250.24369 
  827000    1.1564996    2.7979828    251.74573 
  828000    1.2306258    2.9773206    252.06488 
  829000    1.1380303    2.7532991    251.86253 
  830000    1.0830843    2.6203653    253.32739 
  831000    1.5021236      3.63417    253.34611 
  832000   0.95185506    2.3028751     252.1534 
  833000    1.1874196    2.8727895    251.40831 
  834000    1.1408177    2.7600427    252.37601 
  835000   0.95447538    2.3092146    252.53479 
  836000    1.0619925    2.5693367    251.79397 
  837000    1.1619445     2.811156    250.71746 
  838000   0.97392839    2.3562784    250.87604 
  839000   0.80820435    1.9553331    251.62752 
  840000    1.0956312    2.6507208    252.02969 
  841000   0.92343463     2.234116    252.21489 
  842000   0.95537142    2.3113825     252.7668 
  843000   0.97323998    2.3546128    253.11718 
  844000   0.90332669    2.1854678    253.24644 
  845000   0.93612673    2.2648227    252.47438 
  846000     1.108047    2.6807588    251.76491 
  847000    1.1065568    2.6771534     252.0983 
  848000    1.0911591     2.639901    252.07932 
  849000    1.2179355     2.946618     252.2711 
  850000    1.2308723     2.977917    252.26291 
  851000   0.91418138    2.2117291    252.54698 
  852000    1.1024387    2.6671905    252.48994 
  853000    0.9016476    2.1814055    253.26823 
  854000   0.99982269    2.4189259    253.97652 
  855000   0.96489155     2.334415    254.47596 
  856000    1.0959235    2.6514278    254.53853 
  857000   0.84739195    2.0501418    255.77304 
  858000   0.90015974    2.1778058    256.88421 
  859000    1.0873184    2.6306092    256.65653 
  860000   0.89598503    2.1677057    257.26927 
  861000    1.1962564    2.8941687    257.83815 
  862000    1.2495067    3.0230001    258.12405 
  863000    1.0569733    2.5571934    259.01441 
  864000    1.0771438    2.6059931    258.93009 
  865000    1.0781623    2.6084571    258.69333 
  866000    1.1241822    2.7197956    259.12196 
  867000   0.77937891    1.8855941    260.34403 
  868000    1.2475497    3.0182655    261.11459 
  869000    1.1805942    2.8562764    261.42414 
  870000   0.93110696    2.2526781    260.82752 
  871000    1.0934707    2.6454936    260.29218 
  872000    1.2598427    3.0480064    260.32323 
  873000   0.95903509    2.3202462    261.66491 
  874000   0.97724864    2.3643112    261.55849 
  875000    1.1115475    2.6892278    261.98859 
  876000    1.0798959    2.6126514     261.8571 
  877000   0.92991748    2.2498004    261.71324 
  878000    1.0601452    2.5648673    261.51996 
  879000    1.0605381    2.5658181    261.04358 
  880000    1.0294338    2.4905656    259.54052 
  881000   0.93226892    2.2554893     258.7613 
  882000   0.95588249    2.3126189    258.92587 
  883000    1.6514965     3.995556    258.12575 
  884000    1.1298227     2.733442    258.92193 
  885000   0.81801286    1.9790634    257.49112 
  886000    0.8605715    2.0820278    258.41137 
  887000    1.2507417     3.025988    256.41077 
  888000     1.006926    2.4361114    256.55678 
  889000    1.0487465    2.5372899    256.28719 
  890000    1.0199249    2.4675603    257.03944 
  891000   0.93253988    2.2561449    256.31819 
  892000    1.1408747    2.7601807    256.21865 
  893000   0.98833534    2.3911339    257.07178 
  894000   0.93303113    2.2573334    257.30414 
  895000    1.0119481    2.4482615    256.46592 
  896000   0.92856396    2.2465257    257.19447 
  897000    1.1797662     2.854273    258.51549 
  898000   0.73943516     1.788956    259.48945 
  899000   0.90655603    2.1932807    259.90644 
  900000    1.0296682    2.4911327    258.53696 
  901000    1.4188161    3.4326195    258.54257 
  902000    1.2604107    3.0493807      258.078 
  903000    1.1205765    2.7110723    257.75443 
  904000    1.1520626    2.7872481     256.7918 
  905000    1.0131944    2.4512769     256.0978 
  906000   0.97340559    2.3550135    256.58537 
  907000    1.0040784     2.429222    256.94876 
  908000     1.218434    2.9478242    256.40316 
  909000    1.0110041    2.4459776    258.28746 
  910000   0.92185881    2.2303036    258.30721 
  911000   0.91902315    2.2234431    259.07502 
  912000    1.0201459    2.4680949    259.55399 
  913000   0.67275072    1.6276227    258.41191 
  914000    0.7509343    1.8167765    258.03206 
  915000    1.1799972     2.854832    258.17273 
  916000    1.0603036    2.5652507    258.06651 
  917000    1.0650652    2.5767707    257.86273 
  918000   0.85741442    2.0743897    257.20075 
  919000    1.0714521    2.5922227    258.50549 
  920000    1.1727638    2.8373318    258.02707 
  921000    1.0513502    2.5435893    259.60164 
  922000    1.0541375    2.5503328     259.4166 
  923000    1.2073582     2.921028    260.30981 
  924000   0.97568803    2.3605356    260.81954 
  925000    1.1398582    2.7577215    260.98287 
  926000   0.93266299    2.2564427    260.46288 
  927000   0.97956404     2.369913    259.56787 
  928000    1.0261794     2.482692    260.16304 
  929000   0.93406825    2.2598425     260.4122 
  930000   0.95444471    2.3091404    261.40135 
  931000     1.085217    2.6255249    262.02671 
  932000   0.92390378    2.2352511    262.70606 
  933000    1.1098447    2.6851081    262.79325 
  934000    1.2876501    3.1152824    261.67423 
  935000    1.0206979    2.4694304     261.8582 
  936000    1.0321653     2.497174    261.09443 
  937000   0.90430565    2.1878362    260.69657 
  938000    1.3535275    3.2746633    260.54209 
  939000   0.95899719    2.3201545    259.54339 
  940000    1.1245921    2.7207873    259.81288 
  941000    1.0393935    2.5146616    260.74001 
  942000   0.90325047    2.1852834    259.70823 
  943000     1.160117    2.8067347    259.22304 
  944000    1.0003219    2.4201335    258.77759 
  945000    1.1019892    2.6661028    260.64886 
  946000    1.2668696    3.0650071    261.01849 
  947000    1.0113323    2.4467717    261.24942 
  948000    1.3026234    3.1515082    261.75355 
  949000   0.87951826    2.1278668    262.16157 
  950000   0.95800845    2.3177624    261.83262 
  951000    1.2165592    2.9432883    262.22404 
  952000    1.1592976    2.8047522    261.09724 
  953000     1.203874    2.9125984      261.724 
  954000   0.86003152    2.0807214    262.14615 
  955000   0.96469795    2.3339466    261.80585 
  956000   0.86553424    2.0940345    261.48446 
  957000   0.72544808    1.7551163     262.4322 
  958000   0.95781848    2.3173028    262.18831 
  959000    1.2283034    2.9717018     261.3904 
  960000    1.0228003    2.4745169    261.40594 
  961000     1.040912    2.5183355    259.60351 
  962000    0.9911127    2.3978533    259.16591 
  963000      1.03472    2.5033549    258.04381 
  964000    1.1183542    2.7056956    258.36015 
  965000    1.2057297     2.917088    258.03358 
  966000    1.0462648    2.5312859    257.50242 
  967000   0.84368121    2.0411642    257.03529 
  968000   0.99240536    2.4009807    257.51299 
  969000   0.98450924    2.3818772    257.60042 
  970000    1.1186328    2.7063697    257.95732 
  971000   0.98558511    2.3844801    258.33998 
  972000   0.93476224    2.2615215    259.65986 
  973000    1.3229963    3.2007974     259.7188 
  974000    1.1183212    2.7056159     259.1624 
  975000   0.95021529     2.298908    259.42709 
  976000   0.81581439    1.9737445    258.51001 
  977000    1.1138099    2.6947015    258.04894 
  978000    1.0395623      2.51507    258.36902 
  979000    1.0898384    2.6367058    259.52859 
  980000    1.2691384    3.0704962    259.96326 
  981000   0.97295044    2.3539124    261.15534 
  982000   0.84425829    2.0425604    260.84851 
  983000    1.3220428    3.1984907       261.89 
  984000    1.2118129    2.9318053    262.28871 
  985000    1.0625585     2.570706    263.85741 
  986000   0.90349471    2.1858743      264.946 
  987000    1.1049205    2.6731948    263.24694 
  988000    1.0470251    2.5331254    264.33319 
  989000    1.2260341    2.9662115    264.50615 
  990000    1.0958231     2.651185    265.20463 
  991000     1.001718    2.4235113    265.88601 
  992000    1.1523146    2.7878578      266.391 
  993000    1.0173847    2.4614145    266.77856 
  994000    1.2067538    2.9195657    267.14292 
  995000       0.9721    2.3518548    266.65382 
  996000   0.95651701    2.3141541    266.87477 
  997000   0.93421643     2.260201    266.44215 
  998000   0.93286906    2.2569413    266.06821 
  999000    1.0213921      2.47111    266.04356 
 1000000    1.0310688    2.4945213    265.00624 
 1001000   0.97349768    2.3552363    265.70289 
 1002000    1.0475392    2.5343691    265.98174 
 1003000    1.1435893    2.7667484    266.35744 
 1004000   0.80529521    1.9482949    267.03645 
 1005000    1.1869915    2.8717536     267.1362 
 1006000    1.4907726    3.6067079    266.28379 
 1007000    1.0723553     2.594408    266.20983 
 1008000    0.9863517    2.3863348    266.86924 
 1009000    1.0050716    2.4316249    267.25496 
 1010000   0.93511775    2.2623816      267.345 
 1011000   0.85551135    2.0697855    267.69422 
 1012000    1.0163917    2.4590122    267.98886 
 1013000    1.3881353    3.3583918    266.94486 
 1014000   0.83270941    2.0146195    266.56361 
 1015000    1.2082213     2.923116    266.39523 
 1016000   0.93612662    2.2648225     266.6983 
 1017000    1.3017167    3.1493145     266.7509 
 1018000   0.92772918    2.2445061    267.84883 
 1019000    1.2548007    3.0358081    269.32457 
 1020000    1.0547185    2.5517384     269.9629 
 1021000   0.85353989    2.0650159    270.84437 
 1022000     1.147983    2.7773782    270.53032 
 1023000   0.92176791    2.2300836    269.96623 
 1024000    1.0337859    2.5010948    269.74232 
 1025000    0.6911466    1.6721289    269.09825 
 1026000    1.0692022    2.5867795    268.49171 
 1027000   0.98985023    2.3947989    268.62185 
 1028000   0.72149103    1.7455428    269.05022 
 1029000    1.1314878    2.7374704    270.50916 
 1030000    1.0697932    2.5882093    270.11044 
 1031000    1.1072809    2.6789053    272.00638 
 1032000    1.1117787    2.6897871     272.4674 
 1033000    1.0426866    2.5226288     271.5921 
 1034000    1.3064155    3.1606826    272.26101 
 1035000    1.1695668    2.8295971     271.7054 
 1036000    1.1574622    2.8003119    271.94257 
 1037000    1.1358407    2.7480017    271.08541 
 1038000    1.1211064    2.7123542    270.44678 
 1039000    1.0610867    2.5671453    269.78343 
 1040000    1.0427651    2.5228188    268.32327 
 1041000    1.0192572    2.4659449     268.3294 
 1042000    1.0531455    2.5479326     268.8007 
 1043000    0.9560966    2.3131369    269.25997 
 1044000   0.99683243    2.4116914    271.14874 
 1045000    1.1008922    2.6634488    272.54324 
 1046000    1.1578194    2.8011759    273.08801 
 1047000    1.1713487    2.8339082    273.21454 
 1048000   0.77702014    1.8798874    273.54975 
 1049000    1.0697761     2.588168    272.97653 
 1050000    1.1085451     2.681964    273.54887 
 1051000   0.90311214    2.1849487     273.4172 
 1052000   0.95513632    2.3108137    274.81017 
 1053000    1.1403964    2.7590235    274.44685 
 1054000    1.2970085    3.1379237    275.47661 
 1055000   0.94816461    2.2939466    275.26324 
 1056000   0.87011985    2.1051287    275.17464 
 1057000    1.0439574    2.5257033    275.87283 
 1058000   0.88339996     2.137258    275.46014 
 1059000   0.93326554    2.2579005    275.98777 
 1060000    1.1928235    2.8858633    275.92174 
 1061000    1.0637217    2.5735202    276.10652 
 1062000   0.97213756    2.3519457    277.53723 
 1063000   0.88000871    2.1290533    277.79763 
 1064000    1.0855733    2.6263871    278.04305 
 1065000    1.2108986    2.9295933    278.48083 
 1066000    1.1358533    2.7480321    278.35821 
 1067000   0.80421935     1.945692    278.49631 
 1068000   0.92516321    2.2382981    279.02325 
 1069000    0.9150918    2.2139318    279.37956 
 1070000    1.0285575    2.4884456    280.61791 
 1071000    1.0163659    2.4589498    280.87922 
 1072000   0.93562096    2.2635991    280.92703 
 1073000    1.0587236    2.5614281    281.02738 
 1074000   0.77291549    1.8699568    282.34371 
 1075000    0.9956194    2.4087566    283.01736 
 1076000   0.88768956     2.147636    281.29213 
 1077000    1.3627956    3.2970862    282.68895 
 1078000    1.0717109    2.5928491    281.79321 
 1079000    1.0379381    2.5111406    282.18905 
 1080000   0.93362178    2.2587624    282.13671 
 1081000   0.95198422    2.3031876    281.55966 
 1082000    1.0938185    2.6463351    281.56913 
 1083000    1.0634036    2.5727508    280.00459 
 1084000    1.0157084    2.4573589    279.56436 
 1085000    1.0325266    2.4980481    278.67485 
 1086000   0.97590469    2.3610597    277.33112 
 1087000   0.90254813    2.1835842    278.10484 
 1088000   0.82011215    1.9841423    278.92027 
 1089000   0.88534179     2.141956    278.01966 
 1090000   0.91188269    2.2061678    278.46768 
 1091000    0.9896335    2.3942746    279.69399 
 1092000   0.91667833    2.2177702    280.77488 
 1093000    1.1200507       2.7098    279.91449 
 1094000    1.0262348    2.4828261    279.27738 
 1095000   0.80959942    1.9587083    279.49066 
 1096000   0.68106153    1.6477295    279.64892 
 1097000   0.94414751    2.2842279    279.80276 
 1098000    1.0087644     2.440559    280.27119 
 1099000   0.95457619    2.3094585    280.06389 
 1100000   0.99473494    2.4066168    281.07519 
 1101000    1.1053836    2.6743151    281.84391 
 1102000    1.2181088    2.9470375    283.42614 
 1103000    1.2849828    3.1088293    283.86011 
 1104000     1.011009    2.4459895    284.64291 
 1105000   0.90155779    2.1811882    284.61509 
 1106000   0.85308562    2.0639168    284.32414 
 1107000   0.93004222    2.2501021     284.2783 
 1108000   0.83636531    2.0234645    284.94976 
 1109000    1.2718318    3.0770125    283.37522 
 1110000   0.65627686    1.5877666     282.8494 
 1111000   0.84818882    2.0520697    282.55203 
 1112000   0.93785052    2.2689932    281.86271 
 1113000    0.9797061    2.3702567    281.23844 
 1114000    1.1419778    2.7628494    281.45082 
 1115000    1.1782115    2.8505118    281.64726 
 1116000   0.92121895    2.2287555    281.94761 
 1117000   0.92791198    2.2449483    281.98032 
 1118000   0.96448703    2.3334364    282.18949 
 1119000    1.0261342    2.4825828    283.91964 
 1120000    1.1679933    2.8257902    283.50309 
 1121000    1.1570334    2.7992743    282.62043 
 1122000    0.9784854    2.3673034    282.22972 
 1123000   0.85705877    2.0735293     281.2587 
 1124000    1.0013201    2.4225487    280.28244 
 1125000    1.0971515    2.6543987    280.13217 
 1126000    1.2269188     2.968352    281.60252 
 1127000    1.0851479    2.6253578    281.57559 
 1128000    1.1774876    2.8487602    281.93746 
 1129000   0.97349894    2.3552394    281.77793 
 1130000    1.0818972    2.6174933    281.97423 
 1131000    1.4838359    3.5899256     282.6588 
 1132000    1.0652128    2.5771277    283.02895 
 1133000   0.87659836    2.1208025     282.1812 
 1134000    1.4310897    3.4623138    281.26257 
 1135000    1.0226914    2.4742535    281.53688 
 1136000    1.2549424    3.0361511    281.02931 
 1137000    1.0524022    2.5461343    281.57516 
 1138000    0.9736057    2.3554977    280.86595 
 1139000    1.1989237    2.9006217    279.95998 
 1140000    1.2164474     2.943018    278.67716 
 1141000    1.0736025    2.5974254      277.979 
 1142000    1.2338601    2.9851455    278.38378 
 1143000    1.2250826    2.9639095    278.32407 
 1144000    1.1252713    2.7224306    278.05101 
 1145000    1.1291743    2.7318732    276.76642 
 1146000    1.2322969    2.9813634    275.54067 
 1147000   0.99703612    2.4121842     276.6029 
 1148000    1.0059708    2.4338003    276.82956 
 1149000    1.0041942    2.4295021    277.19647 
 1150000    1.2809427    3.0990549    278.40702 
 1151000   0.95618737    2.3133565    279.86147 
 1152000    1.3688938    3.3118399    279.25384 
 1153000    1.0116597    2.4475637    279.93754 
 1154000    1.2692621    3.0707954    280.19018 
 1155000   0.87707455    2.1219546     278.9037 
 1156000    1.0134362    2.4518617    279.01505 
 1157000    1.1318548    2.7383585    279.61127 
 1158000    0.9518654    2.3029002    279.92119 
 1159000    1.0863395    2.6282406     279.3931 
 1160000   0.88468772    2.1403735     279.7113 
 1161000   0.94650129    2.2899225    279.53338 
 1162000   0.90886415    2.1988649    280.16701 
 1163000    1.1514596    2.7857893    279.52106 
 1164000   0.77936409    1.8855583    280.62371 
 1165000    1.1079965    2.6806367    281.68991 
 1166000    1.0980634    2.6566051    281.86275 
 1167000   0.87231868    2.1104484    280.65274 
 1168000   0.97545653    2.3599755    279.21945 
 1169000   0.96415788      2.33264    281.44314 
 1170000    1.0000162     2.419394    281.61195 
 1171000   0.65714818    1.5898746    282.58056 
 1172000   0.86097923    2.0830143    281.53109 
 1173000   0.58903637     1.425088    281.02769 
 1174000    1.2040414    2.9130034    281.10078 
 1175000     1.300814    3.1471307    280.17612 
 1176000   0.89445516    2.1640044    279.58567 
 1177000    1.0648939    2.5763562    279.74661 
 1178000    1.0200955    2.4679731    279.52311 
 1179000   0.99933636    2.4177492    279.93279 
 1180000    1.3413206    3.2451305    282.28378 
 1181000    1.1897225    2.8783609    282.07277 
 1182000   0.76241501    1.8445524    282.47228 
 1183000   0.71228966    1.7232814    282.34463 
 1184000    1.0943094    2.6475228    282.81197 
 1185000   0.88494805    2.1410034    284.90322 
 1186000   0.94323053    2.2820094    285.56685 
 1187000   0.97364709    2.3555978    286.42403 
 1188000   0.96918556    2.3448038    287.93874 
 1189000   0.99345801    2.4035274    287.88383 
 1190000    1.0341847    2.5020598    288.42426 
 1191000    1.0101671    2.4439526    288.59555 
 1192000    0.8785079    2.1254223     289.9041 
 1193000    1.1403277    2.7588573    289.77717 
 1194000   0.82536054      1.99684    289.57649 
 1195000    1.1660203     2.821017    288.97624 
 1196000    1.0632956    2.5724894    289.07804 
 1197000   0.98210005    2.3760485    289.25776 
 1198000   0.89186415    2.1577358    290.45418 
 1199000   0.99775155     2.413915    290.43355 
 1200000   0.96104837     2.325117    291.89637 
 1201000   0.90970204     2.200892    291.58438 
 1202000    0.9392868    2.2724681    290.39093 
 1203000    1.1586093    2.8030869    290.17603 
 1204000   0.92604759    2.2404377    289.95472 
 1205000    1.0247751    2.4792945    289.36486 
 1206000   0.93088589    2.2521433    288.59596 
 1207000   0.86387366    2.0900169    287.50339 
 1208000    1.0398895    2.5158616     286.2401 
 1209000    1.3231368    3.2011374    286.63518 
 1210000    1.0742473    2.5989853    286.72348 
 1211000   0.97460716    2.3579205    287.07858 
 1212000   0.89919445    2.1754704    286.95687 
 1213000    1.0661374    2.5793646    286.01721 
 1214000    1.0305182    2.4931891    284.90748 
 1215000    1.3476156    3.2603604    286.38069 
 1216000   0.83650172    2.0237945    286.94726 
 1217000   0.85332605    2.0644985    286.34371 
 1218000    1.1701694    2.8310551    285.66689 
 1219000    1.0689882    2.5862617    285.54438 
 1220000    1.0141523    2.4535943    286.28252 
 1221000    1.1692119    2.8287385    287.30789 
 1222000    1.1601925    2.8069173    286.66564 
 1223000   0.91923233    2.2239492    286.99102 
 1224000     1.121127    2.7124041     286.9549 
 1225000   0.97853465    2.3674225    287.26117 
 1226000   0.79665658    1.9273949    286.18643 
 1227000   0.79467963     1.922612    286.93893 
 1228000    1.0428572    2.5230417     287.8623 
 1229000    1.3623944    3.2961154    287.87766 
 1230000    1.0700829    2.5889103    287.71742 
 1231000    0.8127708     1.966381    288.43954 
 1232000    1.0602711    2.5651719    288.36008 
 1233000    1.1163926    2.7009499    289.26494 
 1234000   0.71880727    1.7390498    290.31091 
 1235000     1.082987    2.6201297     289.6558 
 1236000   0.92748579    2.2439172    290.12965 
 1237000   0.91689116    2.2182851    288.77955 
 1238000   0.97229039    2.3523155    289.02649 
 1239000    1.1519124    2.7868847    288.73848 
 1240000   0.89401992    2.1629514    289.04632 
 1241000   0.97353112    2.3553172    288.74073 
 1242000   0.88260094    2.1353249    289.66024 
 1243000   0.95388408    2.3077841    290.33407 
 1244000    1.3684305     3.310719    288.86747 
 1245000    0.9691604    2.3447429     288.8746 
 1246000    1.2904574    3.1220744    288.02656 
 1247000    1.0950768    2.6493793    288.28893 
 1248000   0.96163014    2.3265245    288.07296 
 1249000   0.97547621    2.3600231     289.0016 
 1250000    1.0862813    2.6280999    289.21542 
 1251000    1.0203453    2.4685773    289.42017 
 1252000   0.90596059    2.1918401    288.96648 
 1253000     1.035715     2.505762    289.41457 
 1254000    1.1223135    2.7152745    289.82234 
 1255000   0.98139965     2.374354    289.92577 
 1256000    1.0627355    2.5711342    289.73292 
 1257000   0.78783131    1.9060435    290.19662 
 1258000    0.7288445    1.7633335    290.27956 
 1259000       1.2039    2.9126612    291.29763 
 1260000   0.94171296    2.2783378    290.92152 
 1261000    1.1390558    2.7557802     291.1681 
 1262000   0.89508642    2.1655317    290.55481 
 1263000   0.91882585    2.2229658    290.27418 
 1264000    1.2419929    3.0048215     291.6327 
 1265000    1.0553356    2.5532312    292.79017 
 1266000    1.0509889     2.542715    293.87098 
 1267000    1.0088719    2.4408191    293.54597 
 1268000     1.074571    2.5997686    293.50766 
 1269000   0.90625858    2.1925611    293.68768 
 1270000   0.90039346    2.1783713    294.88585 
 1271000    1.2086655    2.9241907    295.81965 
 1272000    1.0537814    2.5494711    295.66516 
 1273000    1.2247626    2.9631352     296.6271 
 1274000   0.77623114    1.8779786    298.94361 
 1275000    1.2134599      2.93579    299.17963 
 1276000     1.001415    2.4227782    298.72026 
 1277000     1.048426    2.5365144    299.03465 
 1278000    1.2695058     3.071385    298.90927 
 1279000    1.0844337    2.6236298    299.82418 
 1280000    1.1287028    2.7307327    300.00929 
 1281000    1.0122914    2.4490922    299.63622 
 1282000   0.99780234    2.4140379    299.54598 
 1283000    1.3257734    3.2075163    299.55596 
 1284000    0.8652224      2.09328    298.73572 
 1285000    1.2654982    3.0616892    298.68108 
 1286000    1.1071473    2.6785823     298.3983 
 1287000   0.74546491    1.8035441    298.08329 
 1288000   0.92138669    2.2291613    298.38329 
 1289000   0.94034597    2.2750306    298.99325 
 1290000   0.87888239    2.1263284    299.66989 
 1291000   0.72880227    1.7632313    300.14507 
 1292000   0.89482956    2.1649102    300.61006 
 1293000    1.0591878    2.5625512     300.9652 
 1294000   0.94048672    2.2753711    301.63146 
 1295000   0.76647009    1.8543631    301.55365 
 1296000    1.1637482    2.8155198    301.84513 
 1297000   0.99957658    2.4183304    303.39391 
 1298000    1.0458593    2.5303047    303.84858 
 1299000   0.93515046    2.2624608    304.56283 
 1300000   0.92101233    2.2282556    304.08803 
 1301000    0.9245186    2.2367386    303.26251 
 1302000    1.1117813    2.6897934    303.43285 
 1303000    1.2167514    2.9437535    303.30175 
 1304000     1.094927    2.6490169    303.83597 
 1305000    0.9627405    2.3292109    304.62795 
 1306000   0.94302514    2.2815124    304.23793 
 1307000    1.1067063    2.6775153    304.28911 
 1308000    1.4390111    3.4814785    304.56171 
 1309000    1.2319315    2.9804794     303.5192 
 1310000    1.1736368    2.8394438    302.77282 
 1311000    1.0343747    2.5025195    302.92917 
 1312000    1.3964648    3.3785438    303.27973 
 1313000    1.1684117    2.8268026    301.97094 
 1314000   0.91869691    2.2226538    302.14687 
 1315000    1.0138927    2.4529663    302.61719 
 1316000   0.98667511    2.3871172    301.41374 
 1317000    1.2347647    2.9873339    302.18133 
 1318000    1.0804993    2.6141112    302.78566 
 1319000   0.96452887    2.3335376    303.52629 
 1320000   0.88403101    2.1387847    304.25535 
 1321000    1.0837228    2.6219099     304.1095 
 1322000   0.87922255    2.1271513    303.48542 
 1323000    1.1602396    2.8070312    304.10341 
 1324000    1.0022068    2.4246939    303.76885 
 1325000    1.1130401    2.6928391    303.70444 
 1326000    1.0713619    2.5920046    303.42556 
 1327000   0.81295061     1.966816     304.0771 
 1328000    1.0852653    2.6256418     304.1297 
 1329000    1.0322429    2.4973619    302.85681 
 1330000    1.0727457    2.5953526    303.29957 
 1331000    1.0367903    2.5083637    304.47984 
 1332000   0.94457988    2.2852739    304.94986 
 1333000     1.169471    2.8293654    304.08242 
 1334000    1.2608923    3.0505459    304.65567 
 1335000    1.0995047    2.6600921    305.65599 
 1336000    1.2281536    2.9713394    308.09863 
 1337000    1.2607191    3.0501267    308.34331 
 1338000    1.1309815    2.7362456    308.98497 
 1339000    1.0331188    2.4994811    308.63851 
 1340000   0.97804224    2.3662312    308.93171 
 1341000    1.2451957    3.0125702    309.19587 
 1342000   0.92749191     2.243932    309.34556 
 1343000   0.76522581    1.8513528    309.14374 
 1344000    1.2567033    3.0404112    308.97026 
 1345000    1.0101317     2.443867     309.6768 
 1346000    1.0484921    2.5366745    309.76111 
 1347000    1.0938705    2.6464608    309.10286 
 1348000   0.99792044    2.4143237    309.55225 
 1349000   0.94370392    2.2831546    308.79364 
 1350000   0.96040141    2.3235518    308.64528 
 1351000    1.2435381    3.0085598    307.68971 
 1352000    1.0119028     2.448152    307.85002 
 1353000    1.0806111    2.6143817    308.35335 
 1354000   0.63515046    1.5366543    309.12029 
 1355000   0.88857655     2.149782    309.06221 
 1356000   0.76794988    1.8579433    310.03092 
 1357000    1.1052017    2.6738752      310.327 
 1358000    1.0410308    2.5186229    311.20761 
 1359000    1.0798413    2.6125192    311.64425 
 1360000    1.0690292    2.5863609    311.85641 
 1361000    1.1339771     2.743493    311.52276 
 1362000    1.1513865    2.7856125    311.78765 
 1363000    1.0644554    2.5752954     312.5471 
 1364000   0.85260853    2.0627626    310.77143 
 1365000     1.162739    2.8130781    311.42945 
 1366000    0.9030278    2.1847447    310.23984 
 1367000   0.91991348    2.2255971    309.78528 
 1368000    1.0973683    2.6549232     309.9576 
 1369000    1.2929938    3.1282108    310.95246 
 1370000     1.026889    2.4844089     310.7919 
 1371000    1.2010258    2.9057077    311.17067 
 1372000    1.0969832    2.6539917    310.59108 
 1373000    1.0533092    2.5483288    310.43332 
 1374000   0.96761074    2.3409937     309.6235 
 1375000    1.0939326    2.6466112    308.94081 
 1376000   0.99850731    2.4157435    308.21241 
 1377000     1.042397    2.5219283    309.62881 
 1378000    1.0031632    2.4270077    308.66983 
 1379000    1.2878311    3.1157204    308.48386 
 1380000    1.3491976    3.2641878    307.58568 
 1381000   0.83906532    2.0299968    306.21274 
 1382000    1.0796334    2.6120163    305.79187 
 1383000    1.2796596    3.0959506    305.57088 
 1384000   0.94087055    2.2762997    305.19242 
 1385000    1.1376952    2.7524883    304.23258 
 1386000    1.1348505    2.7456059    303.92038 
 1387000   0.94204526    2.2791418     303.9364 
 1388000    1.1170351    2.7025042    303.42474 
 1389000    1.2001902    2.9036859    303.30607 
 1390000    1.0106087    2.4450211     303.3365 
 1391000    1.0905334    2.6383874    304.12156 
 1392000   0.85922204     2.078763    304.18056 
 1393000   0.83636252    2.0234577     304.4406 
 1394000   0.96122066    2.3255339    304.80855 
 1395000    1.0471641    2.5334614     305.9777 
 1396000    0.8863907    2.1444936    305.95933 
 1397000    1.3108051    3.1713028    306.48801 
 1398000    1.0041394    2.4293694    306.96527 
 1399000    1.1566597    2.7983702     306.5006 
 1400000   0.98823571    2.3908929    306.36102 
 1401000    1.0878312    2.6318498    306.12927 
 1402000    1.0044167    2.4300405    305.92519 
 1403000    1.1505149    2.7835038    307.17126 
 1404000    1.0215058    2.4713849    308.05447 
 1405000   0.97565459    2.3604546    309.15231 
 1406000    1.2094824     2.926167    308.11891 
 1407000    1.0989263    2.6586927    308.47698 
 1408000   0.99839849    2.4154802    308.37164 
 1409000   0.97794989    2.3660078    309.17235 
 1410000   0.93162743    2.2539373    309.53473 
 1411000    1.0793792    2.6114013    310.93403 
 1412000   0.90433707    2.1879123    311.84198 
 1413000   0.93720139    2.2674227     312.6776 
 1414000    1.1046507     2.672542    313.48043 
 1415000   0.88802591    2.1484498    315.03661 
 1416000   0.92822887     2.245715    315.06429 
 1417000    0.9410202    2.2766618    315.33724 
 1418000    1.1365608    2.7497438    315.06313 
 1419000   0.91089183    2.2037705    315.61643 
 1420000   0.90259769    2.1837041    315.85315 
 1421000    0.9976456    2.4136587    317.16877 
 1422000   0.73364032    1.7749363    317.53383 
 1423000    1.2473457    3.0177718    317.49927 
 1424000    1.0162742    2.4587279    318.55104 
 1425000    1.2568015    3.0406487    318.12162 
 1426000   0.90826173    2.1974074    318.37086 
 1427000    1.1473351    2.7758108    317.81464 
 1428000   0.90188705    2.1819848    318.07815 
 1429000   0.88964947    2.1523777    319.32218 
 1430000   0.90901356    2.1992263    319.36322 
 1431000   0.98857349    2.3917101    319.11453 
 1432000   0.89512636    2.1656283     318.6941 
 1433000   0.97532699    2.3596621    319.40518 
 1434000   0.88988037    2.1529364    319.41024 
 1435000     1.019265    2.4659638    319.14441 
 1436000    1.1107651    2.6873349    319.37823 
 1437000   0.76219237    1.8440138    319.71468 
 1438000     1.003356    2.4274741    318.90823 
 1439000    1.1160829    2.7002005    318.67544 
 1440000   0.89697916    2.1701109    318.99878 
 1441000    1.0143319    2.4540287    317.85755 
 1442000   0.77755658    1.8811853    316.93198 
 1443000    1.2574756    3.0422797    316.90053 
 1444000   0.85132984     2.059669    316.96972 
 1445000    1.0059412    2.4337286    316.74963 
 1446000    1.1693214    2.8290033    317.51767 
 1447000   0.93851169    2.2705928    318.60491 
 1448000    1.0366624    2.5080542    319.17362 
 1449000    1.1192034    2.7077501    319.20824 
 1450000    1.0606191    2.5660139    319.69948 
 1451000   0.99465015    2.4064117    319.15421 
 1452000   0.69422365    1.6795733    318.17469 
 1453000   0.98149308      2.37458    318.03994 
 1454000    1.0411329    2.5188699    318.46328 
 1455000   0.99051611    2.3964099    319.52809 
 1456000    1.2262202    2.9666617    320.61655 
 1457000   0.94806283    2.2937004    320.92589 
 1458000    1.2800292    3.0968449    322.05543 
 1459000   0.91404373    2.2113961    324.09981 
 1460000    1.1645069    2.8173555    323.89145 
 1461000   0.99033579    2.3959737     323.3253 
 1462000    1.3843527    3.3492404    321.77578 
 1463000   0.98786327    2.3899918    321.50408 
 1464000   0.90301079    2.1847035    322.27292 
 1465000   0.96595044    2.3369769    322.19802 
 1466000   0.97032928    2.3475708    322.81955 
 1467000    1.5167092    3.6694577    323.07617 
 1468000    1.1151734    2.6980003    322.47461 
 1469000    1.1142992    2.6958851    321.37723 
 1470000    1.0759956    2.6032152    320.43612 
 1471000   0.81783063    1.9786225    321.46527 
 1472000    1.0009196    2.4215796    321.76085 
 1473000    1.0426866    2.5226289    320.56246 
 1474000    1.0768909    2.6053812    320.45433 
 1475000    1.3595121    3.2891421     321.8215 
 1476000    1.0314228    2.4953778    322.29393 
 1477000    1.0133943    2.4517605    322.69205 
 1478000    1.0153197    2.4564186    322.37238 
 1479000   0.95542487    2.3115118    322.04605 
 1480000    1.1783583    2.8508668    322.42605 
 1481000   0.72661039    1.7579284    322.54913 
 1482000    1.2309866    2.9781935    322.66844 
 1483000    1.0702807    2.5893887    322.32527 
 1484000   0.83589835    2.0223347    322.77064 
 1485000    1.1067655    2.6776584     321.5617 
 1486000    1.1565876    2.7981958    322.42535 
 1487000   0.91718518    2.2189964    322.70782 
 1488000   0.80765213    1.9539971    323.15252 
 1489000    1.2287433    2.9727661    321.59715 
 1490000   0.84548874    2.0455373    322.25709 
 1491000   0.91935528    2.2242466    322.02805 
 1492000    1.0827244    2.6194944    321.05719 
 1493000    1.1941149    2.8889875     321.7936 
 1494000   0.84077438    2.0341316    322.63403 
 1495000     1.190189    2.8794896    322.26574 
 1496000    1.2539147    3.0336647    323.01171 
 1497000    1.1735647    2.8392695    321.99837 
 1498000   0.94621276    2.2892244    321.76423 
 1499000    0.9420336    2.2791135    322.09029 
 1500000    1.0025613    2.4255516    321.59882 
 1501000    1.0105769     2.444944    321.37827 
 1502000    1.0367446    2.5082532    322.54737 
 1503000    1.1282249    2.7295763    322.04954 
 1504000    1.0655684    2.5779881    321.89164 
 1505000    1.0707101    2.5904277    320.99781 
 1506000   0.88958128    2.1522128    320.81819 
 1507000    1.0072892    2.4369899    321.23408 
[...]
 1626000   0.97831732    2.3668967    348.18952 
 1627000     1.139091    2.7558654    348.39218 
 1628000   0.85922701     2.078775    348.83684 
 1629000    1.1519166    2.7868949    348.79885 
 1630000    1.0150461    2.4557566    349.84226 
 1631000    1.0244821    2.4785857    348.68313 
 1632000   0.73835413    1.7863406    349.99411 
 1633000    1.1923846    2.8848015    350.54145 
 1634000   0.99106174      2.39773    350.45999 
 1635000   0.95996318    2.3224916    349.91349 
 1636000     1.095208    2.6496969    349.76213 
 1637000   0.87346806    2.1132292    350.23116 
 1638000   0.80233669    1.9411371     350.6005 
 1639000   0.85666949    2.0725875    350.68476 
 1640000   0.98016036    2.3713557    350.83013 
 1641000    1.1703393     2.831466    350.51955 
 1642000   0.93296172    2.2571654    351.05178 
 1643000    0.8447755    2.0438117    350.76266 
 1644000    1.0984983    2.6576572    351.25365 
 1645000     1.032808     2.498729     351.1898 
 1646000   0.99178007    2.3994679    351.87973 
 1647000    1.0233492    2.4758449    351.52645 
 1648000    1.1677111    2.8251076    351.33089 
 1649000   0.89856334    2.1739436    349.97482 
 1650000     1.137957    2.7531217    351.21501 
 1651000    1.1099566    2.6853788    350.59017 
 1652000   0.83334298    2.0161524    350.57258 
 1653000    1.1597063    2.8057409    350.19763 
 1654000   0.94707089    2.2913006    349.60364 
 1655000    1.1448182    2.7697215    350.02929 
 1656000    1.0630311    2.5718495     350.7296 
 1657000    1.2539958    3.0338608    350.72151 
 1658000    1.2340943    2.9857121     350.8215 
 1659000   0.71457137    1.7288017    351.13998 
 1660000    1.0321676    2.4971798    350.96208 
 1661000     1.022314    2.4733404    351.36491 
 1662000   0.92093432    2.2280669    352.53808 
 1663000   0.96131024    2.3257506    352.14478 
 1664000    1.2337323    2.9848362    351.99068 
 1665000   0.95436494    2.3089474     352.7204 
 1666000    1.3014264    3.1486123     354.2763 
 1667000    1.2523801    3.0299519    354.88005 
 1668000   0.93010389    2.2502513    354.61161 
 1669000    1.0096821    2.4427793    354.86644 
 1670000    1.0373528    2.5097245    355.53413 
 1671000    0.9044449    2.1881731    355.98943 
 1672000    1.0774487    2.6067307    356.35518 
 1673000    1.1065888    2.6772311    357.63216 
 1674000   0.96702695    2.3395813    358.25776 
 1675000    0.9746837    2.3581057    358.54511 
 1676000    1.0403554    2.5169888    358.84991 
 1677000    1.2110855    2.9300456    359.43756 
 1678000   0.84027959    2.0329345    360.58658 
 1679000   0.78254401    1.8932516     359.9693 
 1680000     1.088719    2.6339975    358.68678 
 1681000    1.3315985    3.2216092     359.2184 
 1682000    1.3409087    3.2441339    360.16217 
 1683000    1.0209761    2.4701033    360.34015 
 1684000    1.1535038     2.790735    361.39739 
 1685000    1.1348104    2.7455091    361.44574 
 1686000   0.97074421    2.3485747    362.14925 
 1687000    0.8283646    2.0041079    360.99354 
 1688000    1.1582461    2.8022083    359.07187 
 1689000    1.0991259    2.6591756    359.63524 
 1690000   0.95016349    2.2987826    357.91297 
 1691000      1.02916    2.4899031    356.89679 
 1692000    1.1721071     2.835743    358.07554 
 1693000     1.105991    2.6757848     359.0569 
 1694000    1.1129223     2.692554    358.19081 
 1695000   0.78351845    1.8956092    359.28346 
 1696000   0.90416541     2.187497    360.07087 
 1697000    1.1079387    2.6804968     359.8265 
 1698000    1.1881163     2.874475    359.71495 
 1699000   0.99124163    2.3981652    359.46817 
 1700000    1.1415399    2.7617901    361.43354 
 1701000    1.0726401     2.595097     361.6953 
 1702000   0.82739044    2.0017511    361.41955 
 1703000    1.0319765    2.4967174    362.31306 
 1704000    1.0997993    2.6608048    362.06863 
 1705000    1.0435624    2.5247478    363.35354 
 1706000    1.2496491    3.0233447    363.36589 
 1707000   0.90163888    2.1813844    363.57798 
 1708000    1.1007252    2.6630447    363.96446 
 1709000    1.0049084      2.43123    364.26106 
 1710000    1.2202848     2.952302    365.00366 
 1711000    1.2620873     3.053437    366.07347 
 1712000   0.93972773    2.2735348    365.62423 
 1713000    1.0465574    2.5319937    365.47272 
 1714000    1.1491991    2.7803205    365.33256 
 1715000     1.305765    3.1591088    364.65313 
 1716000   0.88435701    2.1395734    365.33655 
 1717000   0.96770545    2.3412229    365.65892 
 1718000    0.7006117    1.6950283    365.75712 
 1719000    1.0047215    2.4307778    367.11253 
 1720000    1.0423287     2.521763    368.50178 
 1721000    1.1845738    2.8659043    368.18371 
 1722000    1.3324002    3.2235489    368.66119 
 1723000   0.96015198    2.3229483    368.08423 
 1724000    1.0307616    2.4937782     368.8901 
 1725000    1.0439346    2.5256483    368.58862 
 1726000    1.1023395    2.6669503    368.92873 
 1727000    1.1866708    2.8709776    368.35143 
 1728000   0.98367429    2.3798572    367.96179 
 1729000    1.0420792    2.5211594    368.93614 
 1730000    1.0282777    2.4877686    368.34777 
 1731000    1.1846898    2.8661849    369.85131 
 1732000    1.2138989    2.9368521    368.85679 
 1733000    1.2684531     3.068838    369.03923 
 1734000   0.97706521    2.3638674    368.58507 
 1735000    1.0878804    2.6319688    369.87744 
 1736000   0.96463617    2.3337972    370.49208 
 1737000    1.0379074    2.5110664    370.97193 
 1738000    1.0185085    2.4641335    371.28005 
 1739000    1.1008258    2.6632883    371.40281 
 1740000    1.0472184    2.5335929    371.61113 
 1741000     1.442309    3.4894571    371.96454 
 1742000    1.1211556    2.7124731    371.99827 
 1743000   0.88076731    2.1308887     372.7236 
 1744000   0.92269636    2.2323299    372.36995 
 1745000   0.95026626    2.2990313    371.00946 
 1746000    1.0665693    2.5804097    370.19247 
 1747000    1.3482267    3.2618388    370.37037 
 1748000    1.3145029     3.180249    370.63879 
 1749000    1.2004536    2.9043231    370.64465 
 1750000    1.2070972    2.9203964    371.41679 
 1751000    1.1090948    2.6832938    372.32897 
 1752000    1.3061368    3.1600084    372.18459 
 1753000    0.9326523    2.2564168    372.77457 
 1754000   0.79875482    1.9324713    373.88316 
 1755000   0.91676307    2.2179752     373.7141 
 1756000    1.3273775    3.2113971    373.54227 
 1757000    1.0257334    2.4816131    373.29175 
 1758000   0.96605718    2.3372351    373.94463 
 1759000    1.0980734    2.6566292    374.01458 
 1760000   0.82068009    1.9855163     373.6039 
 1761000     1.103316     2.669313     374.6562 
 1762000    1.1204481    2.7107615    373.09253 
 1763000    1.1183569    2.7057021    373.40065 
 1764000   0.88482459    2.1407047    373.96916 
 1765000    1.3329607    3.2249049    374.29758 
 1766000    1.0708046    2.5906563    374.34355 
 1767000   0.95592818    2.3127295    374.15273 
 1768000   0.79984463     1.935108    373.73529 
 1769000    1.0133788     2.451723    373.47008 
 1770000   0.91627174    2.2167865    372.54904 
 1771000    1.0328279    2.4987771    371.01021 
 1772000   0.93920982    2.2722818    370.04648 
 1773000   0.82419276    1.9940147    369.10753 
 1774000    1.2745127    3.0834986    369.02808 
 1775000   0.94517428     2.286712    369.57826 
 1776000   0.76014288    1.8390553    369.69682 
 1777000   0.94594494    2.2885765    368.44208 
 1778000    1.1250688    2.7219407    368.76001 
 1779000   0.84601932    2.0468209    368.70377 
 1780000   0.82829065     2.003929    367.13192 
 1781000    1.0991298    2.6591851    366.77189 
 1782000    1.0494696    2.5390395     365.7537 
 1783000   0.85014131    2.0567935    366.14255 
 1784000    1.0087072    2.4404206    367.35488 
 1785000    1.0979207    2.6562597     366.4826 
 1786000    1.4126214    3.4176324    367.16877 
 1787000     1.066962    2.5813597    366.74326 
 1788000    1.0421004    2.5212107     366.9427 
 1789000    1.0425223    2.5222314    366.94277 
 1790000   0.88752137    2.1472291    366.61409 
 1791000    1.0722482    2.5941488    366.82932 
 1792000    1.1351257    2.7462718    367.74817 
 1793000   0.87501815    2.1169794    368.12305 
 1794000   0.91461986      2.21279    369.11752 
 1795000     1.007555     2.437633    369.10083 
 1796000   0.83092178    2.0102946    368.15053 
 1797000    1.0316076    2.4958249    368.63684 
 1798000    1.2564947    3.0399065    367.65765 
 1799000   0.94734249    2.2919576    368.06307 
 1800000   0.95370691    2.3073554     368.1459 
 1801000   0.92468231    2.2371346    367.50264 
 1802000    1.0693227     2.587071    367.94444 
 1803000    1.2204402    2.9526779    367.62229 
 1804000    1.1674538    2.8244851    367.04907 
 1805000    1.2625335    3.0545166    367.11578 
 1806000   0.93135996    2.2532902    367.76733 
 1807000   0.73845396    1.7865822    370.30814 
 1808000      1.03089    2.4940886    371.28488 
 1809000     1.233126    2.9833693    372.06424 
 1810000   0.83713766     2.025333    371.48855 
 1811000    1.4385223    3.4802959    371.55899 
 1812000   0.96539781    2.3356399     370.9803 
 1813000    0.9811031    2.3736365    370.64243 
 1814000    1.1475516    2.7763344    370.02758 
 1815000   0.93008185     2.250198     369.9717 
 1816000   0.86874653    2.1018061    369.34096 
 1817000    1.1396953    2.7573273    369.65421 
 1818000    1.3283146    3.2136643     369.9729 
 1819000    1.0925565    2.6432818    370.96488 
 1820000    1.0500584    2.5404639    370.79202 
 1821000    1.0452159    2.5287481    370.11057 
 1822000   0.87994079     2.128889    371.04813 
 1823000   0.78428881    1.8974729    371.65644 
 1824000    1.1917215    2.8831971    371.53916 
 1825000    1.0835042     2.621381    371.29506 
 1826000    1.0730207    2.5960179    371.03498 
 1827000   0.99206194    2.4001498    370.82693 
 1828000   0.91817959    2.2214022    372.21866 
 1829000    1.0610488    2.5670535    372.58154 
 1830000   0.89921391    2.1755175     371.2694 
 1831000   0.90771155    2.1960763    370.40389 
 1832000    0.8292863    2.0063378    370.92232 
 1833000   0.95851083    2.3189778     370.7513 
 1834000     1.047507    2.5342911    369.51233 
 1835000   0.99181152     2.399544    368.92995 
 1836000   0.64894336    1.5700243    367.96355 
 1837000   0.96963311    2.3458865    368.43827 
 1838000   0.68525364    1.6578717    367.81585 
 1839000    1.0005336    2.4206458    368.57718 
 1840000    1.2066526    2.9193207    369.23395 
 1841000   0.82610928    1.9986515    368.99766 
 1842000   0.94822829    2.2941007    368.61524 
 1843000    1.1297522    2.7332714    369.69154 
 1844000    1.2254617    2.9648266    369.48744 
 1845000     1.389731    3.3622523    370.02109 
 1846000    1.1165137    2.7012429    370.66344 
 1847000    1.0130885    2.4510205    370.20637 
 1848000   0.76898765     1.860454     370.1025 
 1849000    1.1411697    2.7608944    370.80406 
 1850000    1.1651832    2.8189917    370.63826 
 1851000    1.1594214    2.8050518    371.43184 
 1852000   0.80196494    1.9402377    371.39196 
 1853000   0.95961277    2.3216438    371.44685 
 1854000     1.247646    3.0184983    370.46081 
 1855000    1.2496125     3.023256    370.27024 
 1856000   0.94767565    2.2927637     369.8428 
 1857000     1.235399    2.9888685    370.76981 
 1858000    1.0965184    2.6528671    371.05271 
 1859000    1.1217135    2.7138229    371.32949 
 1860000    1.0511386    2.5430774     370.8042 
 1861000    1.2497695    3.0236359    370.41764 
 1862000    1.2335936    2.9845006    370.77056 
 1863000    1.2011811    2.9060834    369.85919 
 1864000   0.88882118    2.1503738    369.76724 
 1865000     1.174822    2.8423112    369.61685 
 1866000    1.1725891    2.8369091     369.7095 
 1867000    1.0344962    2.5028134    368.65462 
 1868000   0.84981922    2.0560142    368.50924 
 1869000   0.81783686    1.9786376    369.12015 
 1870000   0.94476613    2.2857245    368.87549 
 1871000    1.1570841    2.7993971    367.79984 
 1872000    1.1858624    2.8690219     366.7184 
 1873000    1.2051736    2.9157425    365.27194 
 1874000    1.0282193    2.4876272     365.2341 
 1875000    1.0110534     2.446097    365.36713 
 1876000    1.1653782    2.8194633    365.21186 
 1877000    1.1998662    2.9029022     364.6867 
 1878000     1.187538    2.8730758    366.41745 
 1879000    1.0691788    2.5867229    367.10291 
 1880000    1.2808168    3.0987504    367.38545 
 1881000    0.9101939     2.202082    367.24255 
 1882000   0.98130566    2.3741266    365.16258 
 1883000    1.1065883    2.6772298    365.27948 
 1884000    1.1519162    2.7868941    365.48412 
 1885000     1.127432     2.727658    366.16245 
 1886000    1.2562735    3.0393714    366.55072 
 1887000    0.9760374    2.3613808    365.99725 
 1888000    1.0112351    2.4465365    366.74914 
 1889000   0.82538658     1.996903    366.27032 
 1890000    1.0490016    2.5379071    366.73663 
 1891000    1.2620336    3.0533071    366.85233 
 1892000   0.96463222    2.3337876    367.06997 
 1893000    1.1351348    2.7462939    366.96989 
 1894000    1.1454701    2.7712987    366.46279 
 1895000    1.0502457     2.540917    366.02682 
 1896000    1.0832004     2.620646    365.39422 
 1897000   0.89258039    2.1594687     365.3628 
 1898000    1.0397992    2.5156432     366.1462 
 1899000   0.99388586    2.4045626    366.92576 
 1900000    1.0414199    2.5195643    366.35022 
 1901000    1.0071808    2.4367278     366.1815 
 1902000    1.1030054    2.6685614    366.57794 
 1903000    1.0853706    2.6258966    366.09682 
 1904000    1.2201837    2.9520574    365.01802 
 1905000    1.0525893     2.546587    366.37362 
 1906000    1.3400824    3.2421349    367.21254 
 1907000    1.1358033    2.7479112    368.00203 
 1908000   0.78270271    1.8936356    366.97938 
 1909000    1.2616355    3.0523439    368.00405 
 1910000    1.1049663    2.6733056    368.69043 
 1911000    0.9263925    2.2412722    369.53729 
 1912000    1.2763931    3.0880478    369.47366 
 1913000    1.1685628    2.8271681    368.06323 
 1914000    1.2490611    3.0219221    368.72866 
 1915000   0.98678942    2.3873938    367.94558 
 1916000   0.98564179    2.3846172    368.24847 
 1917000   0.97922519    2.3690932    369.25333 
 1918000    1.0349347    2.5038742    368.72927 
 1919000   0.93061804    2.2514953    369.46407 
 1920000     1.167611    2.8248652    368.77275 
 1921000    1.0899949    2.6370845    368.59749 
 1922000    1.0526431    2.5467172    369.87557 
 1923000    1.0234504    2.4760897    370.17156 
 1924000     1.101703    2.6654105    370.68537 
 1925000   0.97225223    2.3522231    369.20094 
 1926000   0.92973545      2.24936    370.37671 
 1927000    1.1054658     2.674514    371.86201 
 1928000   0.95189314    2.3029673    371.46602 
 1929000   0.91089484    2.2037778    371.16109 
 1930000    1.0095913    2.4425596    370.15385 
 1931000   0.95243556    2.3042796    369.92367 
 1932000    1.2692529    3.0707732     369.9898 
 1933000   0.89247476    2.1592131    369.39098 
 1934000   0.86430077    2.0910502    369.23793 
 1935000     1.075085    2.6010121    370.01742 
 1936000    1.0848194    2.6245631    371.28944 
 1937000   0.72791742    1.7610905    371.26104 
 1938000    1.1918776    2.8835748    370.72855 
 1939000    1.0889197     2.634483     371.5023 
 1940000    1.0110815     2.446165     371.4113 
 1941000     1.022297    2.4732993    370.75795 
 1942000   0.94304221    2.2815537    370.42951 
 1943000    1.2996655     3.144352    371.52193 
 1944000   0.92362705    2.2345816     372.2401 
 1945000   0.93810855    2.2696175     371.6671 
 1946000    0.9203386    2.2266256    371.52111 
 1947000    1.0858116    2.6269634    371.50529 
 1948000   0.93362096    2.2587604    371.41008 
 1949000    1.3121083    3.1744555    369.88711 
 1950000    1.0900437    2.6372025    369.48223 
 1951000   0.83783091    2.0270103    369.79359 
 1952000   0.88962467    2.1523177    369.53931 
 1953000    1.0819417     2.617601    368.10401 
 1954000    1.0365562    2.5077973    368.80811 
 1955000   0.87551938     2.118192     369.0578 
 1956000   0.98581581    2.3850382    368.73947 
 1957000   0.81984519    1.9834964    368.42172 
 1958000    1.1899693     2.878958    369.00929 
 1959000    1.0312369    2.4949279    368.70606 
 1960000    1.1004837    2.6624606    369.01712 
 1961000    0.8886478    2.1499543    369.83171 
 1962000   0.87246071     2.110792    370.80297 
 1963000    1.0832122    2.6206746    370.44449 
 1964000   0.86957424    2.1038086    371.10466 
 1965000   0.99426259     2.405474    372.00714 
 1966000    0.9496661    2.2975793    373.36968 
 1967000    1.1638567    2.8157824    373.03576 
 1968000   0.90702552    2.1944166    373.63164 
 1969000    1.0571522    2.5576263    373.69694 
 1970000    1.3247627     3.205071    372.84118 
 1971000    0.8570689    2.0735538    373.06657 
 1972000     1.173007    2.8379201    372.57874 
 1973000    1.2405882    3.0014231    373.33326 
 1974000    1.1505035    2.7834762    372.56531 
 1975000    1.0576133    2.5587419    373.99466 
 1976000    1.4032672    3.3950012    372.50271 
 1977000   0.97103446    2.3492769    370.89308 
 1978000    1.0375315    2.5101568    371.71452 
 1979000     1.153822    2.7915049    372.20362 
 1980000    1.1894488    2.8776988    373.41579 
 1981000    1.2429119     3.007045    372.96645 
 1982000   0.82670598    2.0000951    372.98827 
 1983000   0.95935742     2.321026    373.05542 
 1984000    1.0308768    2.4940567    373.43994 
 1985000   0.97279316    2.3535318    373.51933 
 1986000   0.90201361     2.182291     373.6894 
 1987000   0.88341474    2.1372937    372.78773 
 1988000      1.20414     2.913242    374.68845 
 1989000    1.0324833    2.4979436    374.44219 
 1990000   0.89228495    2.1587539    374.02471 
 1991000    1.1787647    2.8518501    372.54311 
 1992000   0.89477509    2.1647784    371.69097 
 1993000   0.95835462    2.3185999    372.64681 
 1994000   0.94025279    2.2748051    373.42367 
 1995000   0.90899129    2.1991725    372.57092 
 1996000   0.90819625     2.197249    372.73165 
 1997000   0.85592848    2.0707947    373.01165 
 1998000   0.96115208    2.3253679     373.0462 
 1999000   0.96132647    2.3257898    373.20516 
 2000000   0.98815346    2.3906939    373.53082 
Loop time of 51358.8 on 1 procs for 2000000 steps with 31 atoms

Performance: 33645.658 tau/day, 38.942 timesteps/s
21.5% CPU use with 1 MPI tasks x 1 OpenMP threads

MPI task timing breakdown:
Section |  min time  |  avg time  |  max time  |%varavg| %total
---------------------------------------------------------------
Pair    | 0.46159    | 0.46159    | 0.46159    |   0.0 |  0.00
Bond    | 0.086827   | 0.086827   | 0.086827   |   0.0 |  0.00
Neigh   | 51335      | 51335      | 51335      |   0.0 | 99.95
Comm    | 0.22337    | 0.22337    | 0.22337    |   0.0 |  0.00
Output  | 16.902     | 16.902     | 16.902     |   0.0 |  0.03
Modify  | 4.2012     | 4.2012     | 4.2012     |   0.0 |  0.01
Other   |            | 2.36       |            |       |  0.00

Nlocal:        31.0000 ave          31 max          31 min
Histogram: 1 0 0 0 0 0 0 0 0 0
Nghost:         0.00000 ave           0 max           0 min
Histogram: 1 0 0 0 0 0 0 0 0 0
Neighs:         0.00000 ave           0 max           0 min
Histogram: 1 0 0 0 0 0 0 0 0 0

Total # of neighbors = 0
Ave neighs/atom = 0.0000000
Ave special neighs/atom = 0.0000000
Neighbor list builds = 27768
Dangerous builds = 0
Total wall time: 14:16:00
